 Checking license file: /opt/TURBOMOLE66/LICENSE/turbo_license.ctd
==========================================================
                  license information 
   Version: V6.6                                                   
   Date: 21/07/14                                                  
   Licensee:                                                       
     Zhenggang Lan                                                 
     Qingdao Institute of Bioenergy and Bioprocess Technology      
     Chinese Academy of Science, Qingdao                           
   Nodes: 55                                                       
==========================================================
 operating system is UNIX !
 hostname is         eam

 dscf (eam) : TURBOMOLE V6.6( ) 18 Jun 2014 at 15:17:52
 Copyright (C) 2014 TURBOMOLE GmbH, Karlsruhe


    2014-12-27 16:36:08.759 



                             d s c f - program

                   idea & directorship : reinhart ahlrichs
                   program development : marco haeser
                                         michael baer
                           dft version : oliver treutler


                          quantum chemistry group
                          universitaet  karlsruhe
                                  germany




                          References             
                                                 
          TURBOMOLE:                             
              R. Ahlrichs, M. Baer, M. Haeser, H. Horn, and
              C. Koelmel
              Electronic structure calculations on workstation
              computers: the program system TURBOMOLE
              Chem. Phys. Lett. 162: 165 (1989)
          Density Functional:                              
              O. Treutler and R. Ahlrichs                      
              Efficient Molecular Numerical Integration Schemes
              J. Chem. Phys. 102: 346 (1995)                   
          Parallel Version:                                
              Performance of parallel TURBOMOLE for Density    
              Functional Calculations                          
              M. v. Arnim and R. Ahlrichs                      
              J. Comp. Chem. 19: 1746 (1998)                   
                                         




              +--------------------------------------------------+
              | Atomic coordinate, charge and isotop information |
              +--------------------------------------------------+

                    atomic coordinates            atom    charge  isotop
          0.00000000    0.00000000   -0.72557892    o      8.000     0
          1.41713421    0.00000000    0.36278946    h      1.000     0
         -1.41713421    0.00000000    0.36278946    h      1.000     0
 
       center of nuclear mass  :    0.00000000    0.00000000   -0.60378908
       center of nuclear charge:    0.00000000    0.00000000   -0.50790525

              +--------------------------------------------------+
              |               basis set information              |
              +--------------------------------------------------+

              we will work with the 1s 3p 5d 7f 9g ... basis set
              ...i.e. with spherical basis functions...

   type   atoms  prim   cont   basis
   ---------------------------------------------------------------------------
    o        1     24     14   def-SV(P)   [3s2p1d|7s4p1d]
    h        2      4      2   def-SV(P)   [2s|4s]
   ---------------------------------------------------------------------------
   total:    3     32     18
   ---------------------------------------------------------------------------

   total number of primitive shells          :   16
   total number of contracted shells         :   10
   total number of cartesian basis functions :   19
   total number of SCF-basis functions       :   18


 integral neglect threshold       :  0.18E-09
 integral storage threshold THIZE :  0.10E-04
 integral storage threshold THIME :         5


 symmetry group of the molecule :   c1 

 the group has the following generators :
   c1(z)

    1 symmetry operations found

 there are 1 real representations :   a   

 maximum number of shells which are related by symmetry :  1


    mo occupation :
   irrep   mo's   occupied
    a       18        5
 
 number of basis functions   :           18
 number of occupied orbitals :            5
 

          ------------------------
          nuclear repulsion energy  :   9.30715477358    
          ------------------------

****************************************
     !!   WARNING !! 
 
  1-e matrices are NOT calculated in CAO
  basis any more, but in SAO - and in case
  of C1 in AO (5d, 7f, etc.) basis
    -> $intsdebug cao  has no effect
 
    SAO/AO matrices are printed instead
****************************************
 
          -----------------
          -S,T+V- integrals
          -----------------

 1e-integrals will be neglected if expon. factor < 0.175893E-10
       ----------------------
            OVERLAP(SAO)     
       ----------------------
   1.00000000000000      -0.344016553802724        1.00000000000000     
 -0.157870042005142       0.788940794124799        1.00000000000000     
  0.000000000000000E+000  0.000000000000000E+000  0.000000000000000E+000
   1.00000000000000       0.000000000000000E+000  0.000000000000000E+000
  0.000000000000000E+000  0.000000000000000E+000   1.00000000000000     
  0.000000000000000E+000  0.000000000000000E+000  0.000000000000000E+000
  0.000000000000000E+000  0.000000000000000E+000   1.00000000000000     
  0.000000000000000E+000  0.000000000000000E+000  0.000000000000000E+000
  0.502140892823042       0.000000000000000E+000  0.000000000000000E+000
   1.00000000000000       0.000000000000000E+000  0.000000000000000E+000
  0.000000000000000E+000  0.000000000000000E+000  0.502140892823042     
  0.000000000000000E+000  0.000000000000000E+000   1.00000000000000     
  0.000000000000000E+000  0.000000000000000E+000  0.000000000000000E+000
  0.000000000000000E+000  0.000000000000000E+000  0.502140892823042     
  0.000000000000000E+000  0.000000000000000E+000   1.00000000000000     
 -2.081668171172169E-017  0.000000000000000E+000  1.110223024625157E-016
  0.000000000000000E+000  0.000000000000000E+000  1.759174001698722E-016
  0.000000000000000E+000  0.000000000000000E+000  9.433614001750178E-017
   1.00000000000000       0.000000000000000E+000  0.000000000000000E+000
  0.000000000000000E+000  0.000000000000000E+000  0.000000000000000E+000
  0.000000000000000E+000  0.000000000000000E+000  0.000000000000000E+000
  0.000000000000000E+000  0.000000000000000E+000   1.00000000000000     
  0.000000000000000E+000  0.000000000000000E+000  0.000000000000000E+000
  0.000000000000000E+000  0.000000000000000E+000  0.000000000000000E+000
  0.000000000000000E+000  0.000000000000000E+000  0.000000000000000E+000
  0.000000000000000E+000  0.000000000000000E+000   1.00000000000000     
  0.000000000000000E+000  0.000000000000000E+000  0.000000000000000E+000
  0.000000000000000E+000  0.000000000000000E+000  0.000000000000000E+000
  0.000000000000000E+000  0.000000000000000E+000  0.000000000000000E+000
  0.000000000000000E+000  0.000000000000000E+000  0.000000000000000E+000
   1.00000000000000       0.000000000000000E+000  0.000000000000000E+000
  0.000000000000000E+000  0.000000000000000E+000  0.000000000000000E+000
  0.000000000000000E+000  0.000000000000000E+000  0.000000000000000E+000
  0.000000000000000E+000  0.000000000000000E+000  0.000000000000000E+000
  0.000000000000000E+000  0.000000000000000E+000   1.00000000000000     
 -4.966208433919517E-002  0.338176362939373       0.518405185399144     
  0.227572080968125       0.000000000000000E+000  0.174776853823152     
  0.494712850028027       0.000000000000000E+000  0.379942720152450     
  1.301763653451843E-002  0.192759818566551       0.000000000000000E+000
  0.000000000000000E+000  0.125493599634809        1.00000000000000     
 -6.315696112356106E-002  0.394967772539496       0.695160660156839     
  8.369067941824644E-002  0.000000000000000E+000  6.427499182156630E-002
  0.308119147430398       0.000000000000000E+000  0.236637530234210     
  1.315588332318651E-003  1.948069202681802E-002  0.000000000000000E+000
  0.000000000000000E+000  1.268263367335803E-002  0.684799824745373     
   1.00000000000000      -4.966208433919517E-002  0.338176362939373     
  0.518405185399144      -0.227572080968125       0.000000000000000E+000
  0.174776853823152      -0.494712850028027       0.000000000000000E+000
  0.379942720152450       1.301763653451843E-002 -0.192759818566551     
  0.000000000000000E+000  0.000000000000000E+000  0.125493599634809     
  0.125660923158113       0.312249820145382        1.00000000000000     
 -6.315696112356106E-002  0.394967772539496       0.695160660156839     
 -8.369067941824644E-002  0.000000000000000E+000  6.427499182156630E-002
 -0.308119147430398       0.000000000000000E+000  0.236637530234210     
  1.315588332318651E-003 -1.948069202681802E-002  0.000000000000000E+000
  0.000000000000000E+000  1.268263367335803E-002  0.312249820145382     
  0.612739512547373       0.684799824745373        1.00000000000000     
       ----------------------
             T + V (SAO)     
       ----------------------
  -33.0465968915600        11.1222810136906       -11.3910295226877     
   5.13562499392967       -7.76543346418913       -7.10738110193004     
  0.000000000000000E+000  0.000000000000000E+000  0.000000000000000E+000
  -8.58115363819735       0.000000000000000E+000  0.000000000000000E+000
  0.000000000000000E+000  0.000000000000000E+000  -8.47055183524409     
  2.715535747104489E-002 -0.189403881181969      -0.171860296478251     
  0.000000000000000E+000  0.000000000000000E+000  -8.53578854958086     
  0.000000000000000E+000  0.000000000000000E+000  0.000000000000000E+000
  -3.86564041784362       0.000000000000000E+000  0.000000000000000E+000
  -4.84681682825707       0.000000000000000E+000  0.000000000000000E+000
  0.000000000000000E+000  0.000000000000000E+000  -3.76528632794412     
  0.000000000000000E+000  0.000000000000000E+000  -4.61876232491720     
  3.640647387638147E-003 -0.139054874926410      -0.250737525919292     
  0.000000000000000E+000  0.000000000000000E+000  -3.82447859172726     
  0.000000000000000E+000  0.000000000000000E+000  -4.75327664647744     
  1.931557144012608E-004 -9.656140787755341E-003 -1.163395746927431E-002
  0.000000000000000E+000  0.000000000000000E+000 -0.149478427795563     
  0.000000000000000E+000  0.000000000000000E+000 -0.126928857580353     
  -4.35065834581932       0.000000000000000E+000  0.000000000000000E+000
  0.000000000000000E+000 -0.216734341108263       0.000000000000000E+000
  0.000000000000000E+000 -0.222899839291841       0.000000000000000E+000
  0.000000000000000E+000  0.000000000000000E+000  -4.50105654615095     
  0.000000000000000E+000  0.000000000000000E+000  0.000000000000000E+000
  0.000000000000000E+000 -0.125347278774582       0.000000000000000E+000
  0.000000000000000E+000 -0.104610402912566       0.000000000000000E+000
  0.000000000000000E+000  0.000000000000000E+000  -4.30086090094025     
  0.000000000000000E+000  0.000000000000000E+000  0.000000000000000E+000
  0.000000000000000E+000  0.000000000000000E+000  0.000000000000000E+000
  0.000000000000000E+000  0.000000000000000E+000  0.000000000000000E+000
  0.000000000000000E+000  0.000000000000000E+000  0.000000000000000E+000
  -4.33902483344780       1.862074257939605E-003 -9.308785529712349E-002
 -0.112154552552297       0.000000000000000E+000  0.000000000000000E+000
 -4.569353116684056E-002  0.000000000000000E+000  0.000000000000000E+000
 -5.914471818963753E-002  4.900859938372815E-002  0.000000000000000E+000
  0.000000000000000E+000  0.000000000000000E+000  -4.38444037246105     
   1.62339212635668       -3.21578049925043       -3.49951255095600     
  -1.80339921580515       0.000000000000000E+000  -1.42857352495448     
  -2.55075115297739       0.000000000000000E+000  -2.01465520932244     
 -0.110541384678265       -1.21856276510270       0.000000000000000E+000
  0.000000000000000E+000 -0.794228238597135       -5.18736525460183     
   2.05988569259892       -3.74222955691721       -4.28020058845216     
 -0.653691172196686       0.000000000000000E+000 -0.583159466691477     
  -1.33633269402023       0.000000000000000E+000  -1.18076187428324     
 -3.062211115572833E-002 -0.159936159483850       0.000000000000000E+000
  0.000000000000000E+000 -0.147231048715694       -3.60009955118496     
  -4.23814536094648        1.62339212635668       -3.21578049925043     
  -3.49951255095600        1.80339921580515       0.000000000000000E+000
  -1.42857352495448        2.55075115297739       0.000000000000000E+000
  -2.01465520932244      -0.110541384678265        1.21856276510270     
  0.000000000000000E+000  0.000000000000000E+000 -0.794228238597135     
 -0.984192473059564       -1.92953428184895       -5.18736525460183     
   2.05988569259892       -3.74222955691721       -4.28020058845216     
  0.653691172196686       0.000000000000000E+000 -0.583159466691477     
   1.33633269402023       0.000000000000000E+000  -1.18076187428324     
 -3.062211115572833E-002  0.159936159483850       0.000000000000000E+000
  0.000000000000000E+000 -0.147231048715694       -1.92953428184895     
  -3.00047715914831       -3.60009955118496       -4.23814536094648     
       ----------------------------
             T + V + ECP (SAO)     
       ----------------------------
  -33.0465968915600        11.1222810136906       -11.3910295226877     
   5.13562499392967       -7.76543346418913       -7.10738110193004     
  0.000000000000000E+000  0.000000000000000E+000  0.000000000000000E+000
  -8.58115363819735       0.000000000000000E+000  0.000000000000000E+000
  0.000000000000000E+000  0.000000000000000E+000  -8.47055183524409     
  2.715535747104489E-002 -0.189403881181969      -0.171860296478251     
  0.000000000000000E+000  0.000000000000000E+000  -8.53578854958086     
  0.000000000000000E+000  0.000000000000000E+000  0.000000000000000E+000
  -3.86564041784362       0.000000000000000E+000  0.000000000000000E+000
  -4.84681682825707       0.000000000000000E+000  0.000000000000000E+000
  0.000000000000000E+000  0.000000000000000E+000  -3.76528632794412     
  0.000000000000000E+000  0.000000000000000E+000  -4.61876232491720     
  3.640647387638147E-003 -0.139054874926410      -0.250737525919292     
  0.000000000000000E+000  0.000000000000000E+000  -3.82447859172726     
  0.000000000000000E+000  0.000000000000000E+000  -4.75327664647744     
  1.931557144012608E-004 -9.656140787755341E-003 -1.163395746927431E-002
  0.000000000000000E+000  0.000000000000000E+000 -0.149478427795563     
  0.000000000000000E+000  0.000000000000000E+000 -0.126928857580353     
  -4.35065834581932       0.000000000000000E+000  0.000000000000000E+000
  0.000000000000000E+000 -0.216734341108263       0.000000000000000E+000
  0.000000000000000E+000 -0.222899839291841       0.000000000000000E+000
  0.000000000000000E+000  0.000000000000000E+000  -4.50105654615095     
  0.000000000000000E+000  0.000000000000000E+000  0.000000000000000E+000
  0.000000000000000E+000 -0.125347278774582       0.000000000000000E+000
  0.000000000000000E+000 -0.104610402912566       0.000000000000000E+000
  0.000000000000000E+000  0.000000000000000E+000  -4.30086090094025     
  0.000000000000000E+000  0.000000000000000E+000  0.000000000000000E+000
  0.000000000000000E+000  0.000000000000000E+000  0.000000000000000E+000
  0.000000000000000E+000  0.000000000000000E+000  0.000000000000000E+000
  0.000000000000000E+000  0.000000000000000E+000  0.000000000000000E+000
  -4.33902483344780       1.862074257939605E-003 -9.308785529712349E-002
 -0.112154552552297       0.000000000000000E+000  0.000000000000000E+000
 -4.569353116684056E-002  0.000000000000000E+000  0.000000000000000E+000
 -5.914471818963753E-002  4.900859938372815E-002  0.000000000000000E+000
  0.000000000000000E+000  0.000000000000000E+000  -4.38444037246105     
   1.62339212635668       -3.21578049925043       -3.49951255095600     
  -1.80339921580515       0.000000000000000E+000  -1.42857352495448     
  -2.55075115297739       0.000000000000000E+000  -2.01465520932244     
 -0.110541384678265       -1.21856276510270       0.000000000000000E+000
  0.000000000000000E+000 -0.794228238597135       -5.18736525460183     
   2.05988569259892       -3.74222955691721       -4.28020058845216     
 -0.653691172196686       0.000000000000000E+000 -0.583159466691477     
  -1.33633269402023       0.000000000000000E+000  -1.18076187428324     
 -3.062211115572833E-002 -0.159936159483850       0.000000000000000E+000
  0.000000000000000E+000 -0.147231048715694       -3.60009955118496     
  -4.23814536094648        1.62339212635668       -3.21578049925043     
  -3.49951255095600        1.80339921580515       0.000000000000000E+000
  -1.42857352495448        2.55075115297739       0.000000000000000E+000
  -2.01465520932244      -0.110541384678265        1.21856276510270     
  0.000000000000000E+000  0.000000000000000E+000 -0.794228238597135     
 -0.984192473059564       -1.92953428184895       -5.18736525460183     
   2.05988569259892       -3.74222955691721       -4.28020058845216     
  0.653691172196686       0.000000000000000E+000 -0.583159466691477     
   1.33633269402023       0.000000000000000E+000  -1.18076187428324     
 -3.062211115572833E-002  0.159936159483850       0.000000000000000E+000
  0.000000000000000E+000 -0.147231048715694       -1.92953428184895     
  -3.00047715914831       -3.60009955118496       -4.23814536094648     
 
   Difference densities algorithm switched on.
   The maximal number of linear combinations of
   difference densities is          20 .

 automatic virtual orbital shift switched on 
      shift if e(lumo)-e(homo) < 0.10000000    


 DIIS switched on: error vector is FDS-SDF
 Max. Iterations for DIIS is     :   5
 DIIS matrix (see manual) 
    Scaling factor of diagonals  :  1.200
    threshold for scaling factor :  0.000

 scf convergence criterion : increment of total energy < .1000000D-06
                  and increment of one-electron energy < .1000000D-03


 density matrices ---> file = dens


 fock matrices ---> file = fock


 fock matrix (dfmat) ---> file = dfock


 previous density matrix ---> file = ddens


 DIIS error vectors  ---> file = errvec


 fock matrices for DIIS ---> file = oldfock


   ----> a dscf RESTART run will be tried ! <----
     2e integrals will be read from 2e integral file(s)

 $restart flag 'dscf  twoint' will be switched off !

  MOs are in ASCII format !


 reading orbital data $scfmo  from file mos . 

 orbital characterization : scfdump=1
 

 DSCF restart information will be dumped onto file mos


 complete restart information read in from $restartd
 iterations from earlier run will be continued

    irrep                  1a          2a          3a          4a          5a   
 eigenvalues H        -20.54011    -1.33059    -0.71768    -0.57244    -0.50297
            eV        -558.9292    -36.2074    -19.5292    -15.5769    -13.6866
 occupation              2.0000      2.0000      2.0000      2.0000      2.0000 

    irrep                  6a          7a          8a          9a         10a   
 eigenvalues H          0.17514     0.25569     0.82055     0.94780     1.19839
            eV           4.7658      6.9577     22.3284     25.7911     32.6101
 

 ENERGY CONVERGED !

 closed-shell fock matrix
      1  -0.205302317D+02      2   0.745773951D+01      3  -0.361770151D+01      4   0.349157438D+01
      5  -0.241302887D+01      6  -0.160348759D+01      7   0.213537520D-15      8  -0.565662387D-17
      9  -0.920659068D-16     10  -0.996110890D-01     11  -0.288427009D-15     12  -0.117856266D-14
     13  -0.330641885D-16     14   0.809402842D-16     15  -0.159847400D+00     16   0.237746845D-01
     17  -0.724654562D-01     18  -0.101843315D+00     19  -0.171226906D-15     20  -0.195840862D-14
     21  -0.131277720D+00     22   0.204389910D-16     23   0.754756283D-16     24  -0.104482543D-15
     25  -0.709556853D+00     26  -0.120937596D-16     27  -0.512797965D-16     28  -0.207627538D+00
     29  -0.496842139D-16     30  -0.729074647D-15     31   0.206377370D-15     32   0.294776296D-16
     33  -0.668891587D+00     34  -0.124790427D-14     35   0.249723715D-16     36   0.970817260D-02
     37   0.502348229D-02     38  -0.854108931D-01     39  -0.189225181D+00     40  -0.960567773D-16
     41  -0.399496169D-15     42  -0.699727367D+00     43   0.810505146D-17     44  -0.240696948D-16
     45  -0.123631409D+00     46  -0.481320124D-04     47  -0.775513937D-02     48  -0.113853984D-01
     49   0.329396926D-16     50   0.127598492D-15     51  -0.953769511D-01     52   0.483403136D-16
     53   0.815263288D-16     54  -0.836376760D-01     55   0.292521754D+01     56   0.347980684D-16
     57   0.185353264D-16     58  -0.720078972D-17     59  -0.238342504D+00     60   0.127931292D-15
     61  -0.477484711D-16     62  -0.256759666D+00     63   0.863479691D-16     64  -0.275217074D-17
     65   0.842848914D-17     66   0.276183550D+01     67   0.681193326D-16     68  -0.475000436D-15
     69  -0.279025728D-15     70   0.146414142D-15     71  -0.785724157D-01     72   0.162113775D-14
     73   0.101400140D-15     74  -0.656003084D-01     75   0.134282497D-14     76   0.143523216D-15
     77   0.931674626D-16     78   0.296096033D+01     79  -0.222484482D-16     80  -0.433792916D-15
     81  -0.317431557D-15     82   0.143930074D-15     83  -0.128623579D-15     84   0.168346858D-14
     85   0.275041031D-15     86  -0.910142723D-16     87   0.126237487D-14     88  -0.430365716D-16
     89   0.224985612D-15     90   0.475420862D-18     91   0.293371055D+01     92  -0.293745148D-02
     93  -0.945353772D-01     94  -0.118550166D+00     95  -0.127476098D-16     96   0.623570174D-15
     97  -0.805377290D-01     98  -0.723491352D-17     99   0.457116845D-15    100  -0.942932626D-01
    101   0.318278709D-01    102   0.101478349D-16    103  -0.110190260D-16    104   0.955617848D-16
    105   0.288030552D+01    106   0.111488794D+01    107  -0.107817777D+01    108  -0.826377552D+00
    109  -0.474348000D+00    110   0.675750511D-15    111  -0.386900533D+00    112  -0.290599623D+00
    113   0.763887565D-15    114  -0.253966091D+00    115  -0.223991592D-01    116  -0.709961375D-01
    117   0.559132340D-15    118   0.625895125D-15    119  -0.474769977D-01    120  -0.518469920D+00
    121   0.140919370D+01    122  -0.124294596D+01    123  -0.894891776D+00    124  -0.193235250D+00
    125   0.117174643D-14    126  -0.209232784D+00    127  -0.101079281D+00    128   0.120310084D-14
    129  -0.195101083D+00    130  -0.191844535D-01    131  -0.629616960D-01    132   0.233431897D-15
    133   0.214594921D-15    134  -0.885573179D-01    135  -0.634337139D+00    136  -0.505885094D+00
    137   0.111488794D+01    138  -0.107817777D+01    139  -0.826377552D+00    140   0.474348000D+00
    141   0.631521722D-15    142  -0.386900533D+00    143   0.290599623D+00    144   0.723801855D-15
    145  -0.253966091D+00    146  -0.223991592D-01    147   0.709961375D-01    148   0.447320320D-15
    149   0.161787464D-15    150  -0.474769977D-01    151  -0.313312856D+00    152  -0.445204621D+00
    153  -0.518469920D+00    154   0.140919370D+01    155  -0.124294596D+01    156  -0.894891776D+00
    157   0.193235250D+00    158   0.119819763D-14    159  -0.209232784D+00    160   0.101079281D+00
    161   0.120979510D-14    162  -0.195101083D+00    163  -0.191844535D-01    164   0.629616960D-01
    165   0.193355916D-15    166  -0.439480553D-16    167  -0.885573179D-01    168  -0.445204621D+00
    169  -0.486495674D+00    170  -0.634337139D+00    171  -0.505885094D+00
 
                                              current damping :  0.300
 ITERATION  ENERGY          1e-ENERGY        2e-ENERGY     NORM[dD(SAO)]  TOL
   2  -75.938319314238    -123.16339064     37.917916557    0.836D-05 0.111D-09
          max. resid. norm for Fia-block=  2.378D-06 for orbital      4a         
          max. resid. fock norm         =  2.423D-06 for orbital      4a         

 convergence criteria satisfied after  2 iterations


                  ------------------------------------------ 
                 |  total energy      =    -75.93831931424  |
                  ------------------------------------------ 
                 :  kinetic energy    =     75.93469567548  :
                 :  potential energy  =   -151.87301498972  :
                 :  virial theorem    =      1.99995228182  :
                 :  wavefunction norm =      1.00000000000  :
                  .......................................... 


 orbitals $scfmo  will be written to file mos

    irrep                  1a          2a          3a          4a          5a   
 eigenvalues H        -20.54011    -1.33059    -0.71768    -0.57244    -0.50297
            eV        -558.9292    -36.2074    -19.5292    -15.5769    -13.6866
 occupation              2.0000      2.0000      2.0000      2.0000      2.0000 

    irrep                  6a          7a          8a          9a         10a   
 eigenvalues H          0.17514     0.25569     0.82055     0.94780     1.19839
            eV           4.7658      6.9577     22.3284     25.7911     32.6100
 
 
 
 
 ==============================================================================
                           electrostatic moments
 ==============================================================================
 
              nuc           elec       ->  total
 ------------------------------------------------------------------------------
                          charge      
 ------------------------------------------------------------------------------
          10.000000     -10.000000      -0.000000
 
 ------------------------------------------------------------------------------
                       dipole moment  
 ------------------------------------------------------------------------------
   x       0.000000       0.000000       0.000000
   y       0.000000       0.000000       0.000000
   z      -5.079052       5.967495       0.888442
 
   | dipole moment | =     0.8884 a.u. =     2.2582 debye 
 
 ------------------------------------------------------------------------------
                     quadrupole moment
 ------------------------------------------------------------------------------
  xx       4.016539      -7.161994      -3.145455
  yy       0.000000      -5.294694      -5.294694
  zz       4.474951      -9.858335      -5.383385
  xy       0.000000      -0.000000      -0.000000
  xz       0.000000       0.000000       0.000000
  yz       0.000000      -0.000000      -0.000000
 
     1/3  trace=      -4.607845
     anisotropy=       2.194928
 
 ==============================================================================
 


    ------------------------------------------------------------------------
         total  cpu-time :   0.03 seconds
         total wall-time :   0.03 seconds
    ------------------------------------------------------------------------


   ****  dscf : all done  ****


    2014-12-27 16:36:08.786 

