 Checking license file: /opt/TURBOMOLE66/LICENSE/turbo_license.ctd
==========================================================
                  license information 
   Version: V6.6                                                   
   Date: 21/07/14                                                  
   Licensee:                                                       
     Zhenggang Lan                                                 
     Qingdao Institute of Bioenergy and Bioprocess Technology      
     Chinese Academy of Science, Qingdao                           
   Nodes: 55                                                       
==========================================================
 operating system is UNIX !
 hostname is         eam

 dscf (eam) : TURBOMOLE V6.6( ) 18 Jun 2014 at 15:17:52
 Copyright (C) 2014 TURBOMOLE GmbH, Karlsruhe


    2014-12-27 16:50:21.129 



                             d s c f - program

                   idea & directorship : reinhart ahlrichs
                   program development : marco haeser
                                         michael baer
                           dft version : oliver treutler


                          quantum chemistry group
                          universitaet  karlsruhe
                                  germany




                          References             
                                                 
          TURBOMOLE:                             
              R. Ahlrichs, M. Baer, M. Haeser, H. Horn, and
              C. Koelmel
              Electronic structure calculations on workstation
              computers: the program system TURBOMOLE
              Chem. Phys. Lett. 162: 165 (1989)
          Density Functional:                              
              O. Treutler and R. Ahlrichs                      
              Efficient Molecular Numerical Integration Schemes
              J. Chem. Phys. 102: 346 (1995)                   
          Parallel Version:                                
              Performance of parallel TURBOMOLE for Density    
              Functional Calculations                          
              M. v. Arnim and R. Ahlrichs                      
              J. Comp. Chem. 19: 1746 (1998)                   
                                         




              +--------------------------------------------------+
              | Atomic coordinate, charge and isotop information |
              +--------------------------------------------------+

                    atomic coordinates            atom    charge  isotop
          0.00000000    0.00000000   -0.72557892    o      8.000     0
          1.41713421    0.00000000    0.36278946    h      1.000     0
         -1.41713421    0.00000000    0.36278946    h      1.000     0
 
       center of nuclear mass  :    0.00000000    0.00000000   -0.60378908
       center of nuclear charge:    0.00000000    0.00000000   -0.50790525

              +--------------------------------------------------+
              |               basis set information              |
              +--------------------------------------------------+

              we will work with the 1s 3p 5d 7f 9g ... basis set
              ...i.e. with spherical basis functions...

   type   atoms  prim   cont   basis
   ---------------------------------------------------------------------------
    o        1     24     14   def-SV(P)   [3s2p1d|7s4p1d]
    h        2      4      2   def-SV(P)   [2s|4s]
   ---------------------------------------------------------------------------
   total:    3     32     18
   ---------------------------------------------------------------------------

   total number of primitive shells          :   16
   total number of contracted shells         :   10
   total number of cartesian basis functions :   19
   total number of SCF-basis functions       :   18


 integral neglect threshold       :  0.18E-09
 integral storage threshold THIZE :  0.10E-04
 integral storage threshold THIME :         5


 symmetry group of the molecule :   c1 

 the group has the following generators :
   c1(z)

    1 symmetry operations found

 there are 1 real representations :   a   

 maximum number of shells which are related by symmetry :  1


    mo occupation :
   irrep   mo's   occupied
    a       18        5
 
 number of basis functions   :           18
 number of occupied orbitals :            5
 

          ------------------------
          nuclear repulsion energy  :   9.30715477358    
          ------------------------

****************************************
     !!   WARNING !! 
 
  1-e matrices are NOT calculated in CAO
  basis any more, but in SAO - and in case
  of C1 in AO (5d, 7f, etc.) basis
    -> $intsdebug cao  has no effect
 
    SAO/AO matrices are printed instead
****************************************
 
          -----------------
          -S,T+V- integrals
          -----------------

 1e-integrals will be neglected if expon. factor < 0.175893E-10
       ----------------------
            OVERLAP(SAO)     
       ----------------------
   1.00000000000000      -0.344016553802724        1.00000000000000     
 -0.157870042005142       0.788940794124799        1.00000000000000     
  0.000000000000000E+000  0.000000000000000E+000  0.000000000000000E+000
   1.00000000000000       0.000000000000000E+000  0.000000000000000E+000
  0.000000000000000E+000  0.000000000000000E+000   1.00000000000000     
  0.000000000000000E+000  0.000000000000000E+000  0.000000000000000E+000
  0.000000000000000E+000  0.000000000000000E+000   1.00000000000000     
  0.000000000000000E+000  0.000000000000000E+000  0.000000000000000E+000
  0.502140892823042       0.000000000000000E+000  0.000000000000000E+000
   1.00000000000000       0.000000000000000E+000  0.000000000000000E+000
  0.000000000000000E+000  0.000000000000000E+000  0.502140892823042     
  0.000000000000000E+000  0.000000000000000E+000   1.00000000000000     
  0.000000000000000E+000  0.000000000000000E+000  0.000000000000000E+000
  0.000000000000000E+000  0.000000000000000E+000  0.502140892823042     
  0.000000000000000E+000  0.000000000000000E+000   1.00000000000000     
 -2.081668171172169E-017  0.000000000000000E+000  1.110223024625157E-016
  0.000000000000000E+000  0.000000000000000E+000  1.759174001698722E-016
  0.000000000000000E+000  0.000000000000000E+000  9.433614001750178E-017
   1.00000000000000       0.000000000000000E+000  0.000000000000000E+000
  0.000000000000000E+000  0.000000000000000E+000  0.000000000000000E+000
  0.000000000000000E+000  0.000000000000000E+000  0.000000000000000E+000
  0.000000000000000E+000  0.000000000000000E+000   1.00000000000000     
  0.000000000000000E+000  0.000000000000000E+000  0.000000000000000E+000
  0.000000000000000E+000  0.000000000000000E+000  0.000000000000000E+000
  0.000000000000000E+000  0.000000000000000E+000  0.000000000000000E+000
  0.000000000000000E+000  0.000000000000000E+000   1.00000000000000     
  0.000000000000000E+000  0.000000000000000E+000  0.000000000000000E+000
  0.000000000000000E+000  0.000000000000000E+000  0.000000000000000E+000
  0.000000000000000E+000  0.000000000000000E+000  0.000000000000000E+000
  0.000000000000000E+000  0.000000000000000E+000  0.000000000000000E+000
   1.00000000000000       0.000000000000000E+000  0.000000000000000E+000
  0.000000000000000E+000  0.000000000000000E+000  0.000000000000000E+000
  0.000000000000000E+000  0.000000000000000E+000  0.000000000000000E+000
  0.000000000000000E+000  0.000000000000000E+000  0.000000000000000E+000
  0.000000000000000E+000  0.000000000000000E+000   1.00000000000000     
 -4.966208433919517E-002  0.338176362939373       0.518405185399144     
  0.227572080968125       0.000000000000000E+000  0.174776853823152     
  0.494712850028027       0.000000000000000E+000  0.379942720152450     
  1.301763653451843E-002  0.192759818566551       0.000000000000000E+000
  0.000000000000000E+000  0.125493599634809        1.00000000000000     
 -6.315696112356106E-002  0.394967772539496       0.695160660156839     
  8.369067941824644E-002  0.000000000000000E+000  6.427499182156630E-002
  0.308119147430398       0.000000000000000E+000  0.236637530234210     
  1.315588332318651E-003  1.948069202681802E-002  0.000000000000000E+000
  0.000000000000000E+000  1.268263367335803E-002  0.684799824745373     
   1.00000000000000      -4.966208433919517E-002  0.338176362939373     
  0.518405185399144      -0.227572080968125       0.000000000000000E+000
  0.174776853823152      -0.494712850028027       0.000000000000000E+000
  0.379942720152450       1.301763653451843E-002 -0.192759818566551     
  0.000000000000000E+000  0.000000000000000E+000  0.125493599634809     
  0.125660923158113       0.312249820145382        1.00000000000000     
 -6.315696112356106E-002  0.394967772539496       0.695160660156839     
 -8.369067941824644E-002  0.000000000000000E+000  6.427499182156630E-002
 -0.308119147430398       0.000000000000000E+000  0.236637530234210     
  1.315588332318651E-003 -1.948069202681802E-002  0.000000000000000E+000
  0.000000000000000E+000  1.268263367335803E-002  0.312249820145382     
  0.612739512547373       0.684799824745373        1.00000000000000     
       ----------------------
             T + V (SAO)     
       ----------------------
  -33.0465968915600        11.1222810136906       -11.3910295226877     
   5.13562499392967       -7.76543346418913       -7.10738110193004     
  0.000000000000000E+000  0.000000000000000E+000  0.000000000000000E+000
  -8.58115363819735       0.000000000000000E+000  0.000000000000000E+000
  0.000000000000000E+000  0.000000000000000E+000  -8.47055183524409     
  2.715535747104489E-002 -0.189403881181969      -0.171860296478251     
  0.000000000000000E+000  0.000000000000000E+000  -8.53578854958086     
  0.000000000000000E+000  0.000000000000000E+000  0.000000000000000E+000
  -3.86564041784362       0.000000000000000E+000  0.000000000000000E+000
  -4.84681682825707       0.000000000000000E+000  0.000000000000000E+000
  0.000000000000000E+000  0.000000000000000E+000  -3.76528632794412     
  0.000000000000000E+000  0.000000000000000E+000  -4.61876232491720     
  3.640647387638147E-003 -0.139054874926410      -0.250737525919292     
  0.000000000000000E+000  0.000000000000000E+000  -3.82447859172726     
  0.000000000000000E+000  0.000000000000000E+000  -4.75327664647744     
  1.931557144012608E-004 -9.656140787755341E-003 -1.163395746927431E-002
  0.000000000000000E+000  0.000000000000000E+000 -0.149478427795563     
  0.000000000000000E+000  0.000000000000000E+000 -0.126928857580353     
  -4.35065834581932       0.000000000000000E+000  0.000000000000000E+000
  0.000000000000000E+000 -0.216734341108263       0.000000000000000E+000
  0.000000000000000E+000 -0.222899839291841       0.000000000000000E+000
  0.000000000000000E+000  0.000000000000000E+000  -4.50105654615095     
  0.000000000000000E+000  0.000000000000000E+000  0.000000000000000E+000
  0.000000000000000E+000 -0.125347278774582       0.000000000000000E+000
  0.000000000000000E+000 -0.104610402912566       0.000000000000000E+000
  0.000000000000000E+000  0.000000000000000E+000  -4.30086090094025     
  0.000000000000000E+000  0.000000000000000E+000  0.000000000000000E+000
  0.000000000000000E+000  0.000000000000000E+000  0.000000000000000E+000
  0.000000000000000E+000  0.000000000000000E+000  0.000000000000000E+000
  0.000000000000000E+000  0.000000000000000E+000  0.000000000000000E+000
  -4.33902483344780       1.862074257939605E-003 -9.308785529712349E-002
 -0.112154552552297       0.000000000000000E+000  0.000000000000000E+000
 -4.569353116684056E-002  0.000000000000000E+000  0.000000000000000E+000
 -5.914471818963753E-002  4.900859938372815E-002  0.000000000000000E+000
  0.000000000000000E+000  0.000000000000000E+000  -4.38444037246105     
   1.62339212635668       -3.21578049925043       -3.49951255095600     
  -1.80339921580515       0.000000000000000E+000  -1.42857352495448     
  -2.55075115297739       0.000000000000000E+000  -2.01465520932244     
 -0.110541384678265       -1.21856276510270       0.000000000000000E+000
  0.000000000000000E+000 -0.794228238597135       -5.18736525460183     
   2.05988569259892       -3.74222955691721       -4.28020058845216     
 -0.653691172196686       0.000000000000000E+000 -0.583159466691477     
  -1.33633269402023       0.000000000000000E+000  -1.18076187428324     
 -3.062211115572833E-002 -0.159936159483850       0.000000000000000E+000
  0.000000000000000E+000 -0.147231048715694       -3.60009955118496     
  -4.23814536094648        1.62339212635668       -3.21578049925043     
  -3.49951255095600        1.80339921580515       0.000000000000000E+000
  -1.42857352495448        2.55075115297739       0.000000000000000E+000
  -2.01465520932244      -0.110541384678265        1.21856276510270     
  0.000000000000000E+000  0.000000000000000E+000 -0.794228238597135     
 -0.984192473059564       -1.92953428184895       -5.18736525460183     
   2.05988569259892       -3.74222955691721       -4.28020058845216     
  0.653691172196686       0.000000000000000E+000 -0.583159466691477     
   1.33633269402023       0.000000000000000E+000  -1.18076187428324     
 -3.062211115572833E-002  0.159936159483850       0.000000000000000E+000
  0.000000000000000E+000 -0.147231048715694       -1.92953428184895     
  -3.00047715914831       -3.60009955118496       -4.23814536094648     
       ----------------------------
             T + V + ECP (SAO)     
       ----------------------------
  -33.0465968915600        11.1222810136906       -11.3910295226877     
   5.13562499392967       -7.76543346418913       -7.10738110193004     
  0.000000000000000E+000  0.000000000000000E+000  0.000000000000000E+000
  -8.58115363819735       0.000000000000000E+000  0.000000000000000E+000
  0.000000000000000E+000  0.000000000000000E+000  -8.47055183524409     
  2.715535747104489E-002 -0.189403881181969      -0.171860296478251     
  0.000000000000000E+000  0.000000000000000E+000  -8.53578854958086     
  0.000000000000000E+000  0.000000000000000E+000  0.000000000000000E+000
  -3.86564041784362       0.000000000000000E+000  0.000000000000000E+000
  -4.84681682825707       0.000000000000000E+000  0.000000000000000E+000
  0.000000000000000E+000  0.000000000000000E+000  -3.76528632794412     
  0.000000000000000E+000  0.000000000000000E+000  -4.61876232491720     
  3.640647387638147E-003 -0.139054874926410      -0.250737525919292     
  0.000000000000000E+000  0.000000000000000E+000  -3.82447859172726     
  0.000000000000000E+000  0.000000000000000E+000  -4.75327664647744     
  1.931557144012608E-004 -9.656140787755341E-003 -1.163395746927431E-002
  0.000000000000000E+000  0.000000000000000E+000 -0.149478427795563     
  0.000000000000000E+000  0.000000000000000E+000 -0.126928857580353     
  -4.35065834581932       0.000000000000000E+000  0.000000000000000E+000
  0.000000000000000E+000 -0.216734341108263       0.000000000000000E+000
  0.000000000000000E+000 -0.222899839291841       0.000000000000000E+000
  0.000000000000000E+000  0.000000000000000E+000  -4.50105654615095     
  0.000000000000000E+000  0.000000000000000E+000  0.000000000000000E+000
  0.000000000000000E+000 -0.125347278774582       0.000000000000000E+000
  0.000000000000000E+000 -0.104610402912566       0.000000000000000E+000
  0.000000000000000E+000  0.000000000000000E+000  -4.30086090094025     
  0.000000000000000E+000  0.000000000000000E+000  0.000000000000000E+000
  0.000000000000000E+000  0.000000000000000E+000  0.000000000000000E+000
  0.000000000000000E+000  0.000000000000000E+000  0.000000000000000E+000
  0.000000000000000E+000  0.000000000000000E+000  0.000000000000000E+000
  -4.33902483344780       1.862074257939605E-003 -9.308785529712349E-002
 -0.112154552552297       0.000000000000000E+000  0.000000000000000E+000
 -4.569353116684056E-002  0.000000000000000E+000  0.000000000000000E+000
 -5.914471818963753E-002  4.900859938372815E-002  0.000000000000000E+000
  0.000000000000000E+000  0.000000000000000E+000  -4.38444037246105     
   1.62339212635668       -3.21578049925043       -3.49951255095600     
  -1.80339921580515       0.000000000000000E+000  -1.42857352495448     
  -2.55075115297739       0.000000000000000E+000  -2.01465520932244     
 -0.110541384678265       -1.21856276510270       0.000000000000000E+000
  0.000000000000000E+000 -0.794228238597135       -5.18736525460183     
   2.05988569259892       -3.74222955691721       -4.28020058845216     
 -0.653691172196686       0.000000000000000E+000 -0.583159466691477     
  -1.33633269402023       0.000000000000000E+000  -1.18076187428324     
 -3.062211115572833E-002 -0.159936159483850       0.000000000000000E+000
  0.000000000000000E+000 -0.147231048715694       -3.60009955118496     
  -4.23814536094648        1.62339212635668       -3.21578049925043     
  -3.49951255095600        1.80339921580515       0.000000000000000E+000
  -1.42857352495448        2.55075115297739       0.000000000000000E+000
  -2.01465520932244      -0.110541384678265        1.21856276510270     
  0.000000000000000E+000  0.000000000000000E+000 -0.794228238597135     
 -0.984192473059564       -1.92953428184895       -5.18736525460183     
   2.05988569259892       -3.74222955691721       -4.28020058845216     
  0.653691172196686       0.000000000000000E+000 -0.583159466691477     
   1.33633269402023       0.000000000000000E+000  -1.18076187428324     
 -3.062211115572833E-002  0.159936159483850       0.000000000000000E+000
  0.000000000000000E+000 -0.147231048715694       -1.92953428184895     
  -3.00047715914831       -3.60009955118496       -4.23814536094648     
 
   Difference densities algorithm switched on.
   The maximal number of linear combinations of
   difference densities is          20 .

 automatic virtual orbital shift switched on 
      shift if e(lumo)-e(homo) < 0.10000000    


 DIIS switched on: error vector is FDS-SDF
 Max. Iterations for DIIS is     :   5
 DIIS matrix (see manual) 
    Scaling factor of diagonals  :  1.200
    threshold for scaling factor :  0.000

 scf convergence criterion : increment of total energy < .1000000D-06
                  and increment of one-electron energy < .1000000D-03


 <geterg> : there is no data group $energy 


 density matrices ---> file = dens


 fock matrices ---> file = fock


 fock matrix (dfmat) ---> file = dfock


 previous density matrix ---> file = ddens


 DIIS error vectors  ---> file = errvec


 fock matrices for DIIS ---> file = oldfock


   ----> a dscf RESTART run will be tried ! <----
     2e integrals will be read from 2e integral file(s)

 $restart flag 'dscf  twoint' will be switched off !

  MOs are in ASCII format !


 reading orbital data $scfmo  from file mos . 

 orbital characterization : scfdump=2
 

 DSCF restart information will be dumped onto file mos


 complete restart information read in from $restartd
 iterations from earlier run will be continued

    irrep                  1a          2a          3a          4a          5a   
 eigenvalues H        -20.51214    -1.32143    -0.71075    -0.56717    -0.49873
            eV        -558.1682    -35.9581    -19.3407    -15.4337    -13.5711
 occupation              2.0000      2.0000      2.0000      2.0000      2.0000 

    irrep                  6a          7a          8a          9a         10a   
 eigenvalues H          0.24594     0.32807     0.85782     0.96571     1.24478
            eV           6.6925      8.9274     23.3427     26.2786     33.8726
 
 closed-shell fock matrix
      1  -0.205272780D+02      2   0.745819446D+01      3  -0.361258847D+01      4   0.349183018D+01
      5  -0.241209108D+01      6  -0.160632961D+01      7  -0.286925596D-15      8  -0.279818479D-15
      9   0.735612373D-16     10  -0.949713069D-01     11   0.662853090D-16     12  -0.310908128D-15
     13  -0.229704502D-15     14   0.488113902D-16     15  -0.156670743D+00     16   0.237708228D-01
     17  -0.775409550D-01     18  -0.103696455D+00     19  -0.684558351D-15     20   0.658886432D-16
     21  -0.146479749D+00     22  -0.550590826D-16     23  -0.204610740D-15     24   0.282315753D-15
     25  -0.711228519D+00     26  -0.637836885D-17     27  -0.465142031D-15     28  -0.215094273D+00
     29  -0.198504172D-18     30  -0.581659333D-16     31  -0.110675468D-15     32   0.630562724D-16
     33  -0.668483071D+00     34  -0.276450913D-16     35   0.116598433D-16     36   0.912354444D-02
     37   0.484827484D-02     38  -0.897750737D-01     39  -0.192623656D+00     40  -0.456065836D-16
     41   0.532293054D-16     42  -0.706264370D+00     43   0.408499376D-16     44  -0.140413176D-16
     45  -0.124971992D+00     46   0.576697880D-03     47  -0.837054888D-02     48  -0.114406005D-01
     49  -0.255397999D-15     50  -0.115092590D-15     51  -0.998936010D-01     52  -0.158011484D-15
     53  -0.832830010D-16     54  -0.871252298D-01     55   0.292465486D+01     56   0.288335801D-15
     57  -0.261113334D-15     58  -0.942216975D-16     59  -0.233752698D+00     60  -0.653618637D-16
     61   0.237207043D-15     62  -0.252917475D+00     63  -0.439264254D-16     64   0.208406356D-15
     65  -0.236801389D-16     66   0.276321882D+01     67   0.119625094D-15     68  -0.227336508D-16
     69  -0.920968034D-17     70   0.106274359D-16     71  -0.830249979D-01     72  -0.306019483D-15
     73   0.361632681D-17     74  -0.694434360D-01     75  -0.203123432D-15     76  -0.745137620D-17
     77  -0.410404701D-17     78   0.296159337D+01     79   0.431760934D-15     80  -0.139497135D-15
     81  -0.671557043D-16     82  -0.366231423D-15     83  -0.193595718D-15     84  -0.150323807D-15
     85  -0.246992818D-15     86  -0.187238042D-15     87  -0.116593896D-15     88  -0.207916055D-17
     89  -0.732822000D-17     90  -0.252128622D-16     91   0.293302673D+01     92  -0.312164411D-02
     93  -0.953195407D-01     94  -0.119111678D+00     95   0.348246883D-15     96  -0.486120084D-15
     97  -0.739142356D-01     98   0.193777301D-15     99  -0.336091609D-15    100  -0.884290850D-01
    101   0.336131460D-01    102  -0.266778222D-16    103  -0.194144399D-16    104  -0.103859479D-16
    105   0.288080563D+01    106   0.111473079D+01    107  -0.107928518D+01    108  -0.829029578D+00
    109  -0.472261267D+00    110  -0.114102652D-15    111  -0.385796465D+00    112  -0.293127289D+00
    113  -0.582162425D-16    114  -0.252800146D+00    115  -0.229749239D-01    116  -0.679776519D-01
    117  -0.646543260D-16    118  -0.182280331D-15    119  -0.451502889D-01    120  -0.519834770D+00
    121   0.140910755D+01    122  -0.124553557D+01    123  -0.899693932D+00    124  -0.194453460D+00
    125  -0.145690214D-15    126  -0.209065417D+00    127  -0.104246828D+00    128  -0.111043667D-15
    129  -0.196168177D+00    130  -0.193909163D-01    131  -0.618519206D-01    132  -0.368516004D-16
    133  -0.100773036D-15    134  -0.876367260D-01    135  -0.638103182D+00    136  -0.512477868D+00
    137   0.111473079D+01    138  -0.107928518D+01    139  -0.829029578D+00    140   0.472261267D+00
    141  -0.200489750D-16    142  -0.385796465D+00    143   0.293127289D+00    144  -0.577951482D-17
    145  -0.252800146D+00    146  -0.229749239D-01    147   0.679776519D-01    148  -0.630914761D-16
    149   0.319656521D-16    150  -0.451502889D-01    151  -0.312591038D+00    152  -0.445938821D+00
    153  -0.519834770D+00    154   0.140910755D+01    155  -0.124553557D+01    156  -0.899693932D+00
    157   0.194453460D+00    158  -0.113364904D-15    159  -0.209065417D+00    160   0.104246828D+00
    161  -0.923933697D-16    162  -0.196168177D+00    163  -0.193909163D-01    164   0.618519206D-01
    165  -0.372896558D-16    166  -0.242425032D-17    167  -0.876367260D-01    168  -0.445938821D+00
    169  -0.490060144D+00    170  -0.638103182D+00    171  -0.512477868D+00
 
                                              current damping :  0.200
 ITERATION  ENERGY          1e-ENERGY        2e-ENERGY     NORM[dD(SAO)]  TOL
   3  -75.934038746596    -123.16042072     37.919227201    0.157D+00 0.898D-10
          max. resid. norm for Fia-block=  3.018D-02 for orbital      3a         
          max. resid. fock norm         =  3.730D-02 for orbital      9a         

 convergence criteria cannot be satisfied within  3 iterations !


                  ------------------------------------------ 
                 |  total energy      =    -75.93403874660  |
                  ------------------------------------------ 
                 :  kinetic energy    =     75.80663647639  :
                 :  potential energy  =   -151.74067522299  :
                 :  virial theorem    =      1.99832219816  :
                 :  wavefunction norm =      1.00000000000  :
                  .......................................... 


 ATTENTION : $energy will not be updated since 
 this calculation did not converge (sob) 

 A POSSIBLE REASON MAY BE THAT ...
 - THE GEOMETRY IS FAR FROM BEING REASONABLE

    irrep                  1a          2a          3a          4a          5a   
 eigenvalues H        -20.53304    -1.32898    -0.71629    -0.57399    -0.50130
            eV        -558.7370    -36.1637    -19.4913    -15.6191    -13.6413
 occupation              2.0000      2.0000      2.0000      2.0000      2.0000 

    irrep                  6a          7a          8a          9a         10a   
 eigenvalues H          0.18343     0.26575     0.82287     0.94349     1.20739
            eV           4.9914      7.2314     22.3915     25.6738     32.8551
 
 
 
 
 ==============================================================================
                           electrostatic moments
 ==============================================================================
 
              nuc           elec       ->  total
 ------------------------------------------------------------------------------
                          charge      
 ------------------------------------------------------------------------------
          10.000000     -10.000000      -0.000000
 
 ------------------------------------------------------------------------------
                       dipole moment  
 ------------------------------------------------------------------------------
   x       0.000000       0.000000       0.000000
   y       0.000000       0.000000       0.000000
   z      -5.079052       5.994363       0.915311
 
   | dipole moment | =     0.9153 a.u. =     2.3265 debye 
 
 ------------------------------------------------------------------------------
                     quadrupole moment
 ------------------------------------------------------------------------------
  xx       4.016539      -7.168906      -3.152368
  yy       0.000000      -5.324416      -5.324416
  zz       4.474951      -9.890788      -5.415838
  xy       0.000000      -0.000000      -0.000000
  xz       0.000000       0.000000       0.000000
  yz       0.000000      -0.000000      -0.000000
 
     1/3  trace=      -4.630874
     anisotropy=       2.219172
 
 ==============================================================================
 

 ATTENTION: dscf did not converge! 



    ------------------------------------------------------------------------
         total  cpu-time :   0.03 seconds
         total wall-time :   0.03 seconds
    ------------------------------------------------------------------------


   ****  dscf : all done  ****


    2014-12-27 16:50:21.155 

