 Checking license file: /opt/TURBOMOLE66/LICENSE/turbo_license.ctd
==========================================================
                  license information 
   Version: V6.6                                                   
   Date: 21/07/14                                                  
   Licensee:                                                       
     Zhenggang Lan                                                 
     Qingdao Institute of Bioenergy and Bioprocess Technology      
     Chinese Academy of Science, Qingdao                           
   Nodes: 55                                                       
==========================================================
 operating system is UNIX !
 hostname is         eam

 dscf (eam) : TURBOMOLE V6.6( ) 18 Jun 2014 at 15:17:52
 Copyright (C) 2014 TURBOMOLE GmbH, Karlsruhe


    2014-12-27 17:00:46.200 



                             d s c f - program

                   idea & directorship : reinhart ahlrichs
                   program development : marco haeser
                                         michael baer
                           dft version : oliver treutler


                          quantum chemistry group
                          universitaet  karlsruhe
                                  germany




                          References             
                                                 
          TURBOMOLE:                             
              R. Ahlrichs, M. Baer, M. Haeser, H. Horn, and
              C. Koelmel
              Electronic structure calculations on workstation
              computers: the program system TURBOMOLE
              Chem. Phys. Lett. 162: 165 (1989)
          Density Functional:                              
              O. Treutler and R. Ahlrichs                      
              Efficient Molecular Numerical Integration Schemes
              J. Chem. Phys. 102: 346 (1995)                   
          Parallel Version:                                
              Performance of parallel TURBOMOLE for Density    
              Functional Calculations                          
              M. v. Arnim and R. Ahlrichs                      
              J. Comp. Chem. 19: 1746 (1998)                   
                                         




              +--------------------------------------------------+
              | Atomic coordinate, charge and isotop information |
              +--------------------------------------------------+

                    atomic coordinates            atom    charge  isotop
          0.00000000    0.00000000   -0.72557892    o      8.000     0
          1.41713421    0.00000000    0.36278946    h      1.000     0
         -1.41713421    0.00000000    0.36278946    h      1.000     0
 
       center of nuclear mass  :    0.00000000    0.00000000   -0.60378908
       center of nuclear charge:    0.00000000    0.00000000   -0.50790525

              +--------------------------------------------------+
              |               basis set information              |
              +--------------------------------------------------+

              we will work with the 1s 3p 5d 7f 9g ... basis set
              ...i.e. with spherical basis functions...

   type   atoms  prim   cont   basis
   ---------------------------------------------------------------------------
    o        1     24     14   def-SV(P)   [3s2p1d|7s4p1d]
    h        2      4      2   def-SV(P)   [2s|4s]
   ---------------------------------------------------------------------------
   total:    3     32     18
   ---------------------------------------------------------------------------

   total number of primitive shells          :   16
   total number of contracted shells         :   10
   total number of cartesian basis functions :   19
   total number of SCF-basis functions       :   18


 integral neglect threshold       :  0.18E-09
 integral storage threshold THIZE :  0.10E-04
 integral storage threshold THIME :         5


 symmetry group of the molecule :   c1 

 the group has the following generators :
   c1(z)

    1 symmetry operations found

 there are 1 real representations :   a   

 maximum number of shells which are related by symmetry :  1


    mo occupation :
   irrep   mo's   occupied
    a       18        5
 
 number of basis functions   :           18
 number of occupied orbitals :            5
 

          ------------------------
          nuclear repulsion energy  :   9.30715477358    
          ------------------------

****************************************
     !!   WARNING !! 
 
  1-e matrices are NOT calculated in CAO
  basis any more, but in SAO - and in case
  of C1 in AO (5d, 7f, etc.) basis
    -> $intsdebug cao  has no effect
 
    SAO/AO matrices are printed instead
****************************************
 
          -----------------
          -S,T+V- integrals
          -----------------

 1e-integrals will be neglected if expon. factor < 0.175893E-10
       ----------------------
            OVERLAP(SAO)     
       ----------------------
   1.00000000000000      -0.344016553802724        1.00000000000000     
 -0.157870042005142       0.788940794124799        1.00000000000000     
  0.000000000000000E+000  0.000000000000000E+000  0.000000000000000E+000
   1.00000000000000       0.000000000000000E+000  0.000000000000000E+000
  0.000000000000000E+000  0.000000000000000E+000   1.00000000000000     
  0.000000000000000E+000  0.000000000000000E+000  0.000000000000000E+000
  0.000000000000000E+000  0.000000000000000E+000   1.00000000000000     
  0.000000000000000E+000  0.000000000000000E+000  0.000000000000000E+000
  0.502140892823042       0.000000000000000E+000  0.000000000000000E+000
   1.00000000000000       0.000000000000000E+000  0.000000000000000E+000
  0.000000000000000E+000  0.000000000000000E+000  0.502140892823042     
  0.000000000000000E+000  0.000000000000000E+000   1.00000000000000     
  0.000000000000000E+000  0.000000000000000E+000  0.000000000000000E+000
  0.000000000000000E+000  0.000000000000000E+000  0.502140892823042     
  0.000000000000000E+000  0.000000000000000E+000   1.00000000000000     
 -2.081668171172169E-017  0.000000000000000E+000  1.110223024625157E-016
  0.000000000000000E+000  0.000000000000000E+000  1.759174001698722E-016
  0.000000000000000E+000  0.000000000000000E+000  9.433614001750178E-017
   1.00000000000000       0.000000000000000E+000  0.000000000000000E+000
  0.000000000000000E+000  0.000000000000000E+000  0.000000000000000E+000
  0.000000000000000E+000  0.000000000000000E+000  0.000000000000000E+000
  0.000000000000000E+000  0.000000000000000E+000   1.00000000000000     
  0.000000000000000E+000  0.000000000000000E+000  0.000000000000000E+000
  0.000000000000000E+000  0.000000000000000E+000  0.000000000000000E+000
  0.000000000000000E+000  0.000000000000000E+000  0.000000000000000E+000
  0.000000000000000E+000  0.000000000000000E+000   1.00000000000000     
  0.000000000000000E+000  0.000000000000000E+000  0.000000000000000E+000
  0.000000000000000E+000  0.000000000000000E+000  0.000000000000000E+000
  0.000000000000000E+000  0.000000000000000E+000  0.000000000000000E+000
  0.000000000000000E+000  0.000000000000000E+000  0.000000000000000E+000
   1.00000000000000       0.000000000000000E+000  0.000000000000000E+000
  0.000000000000000E+000  0.000000000000000E+000  0.000000000000000E+000
  0.000000000000000E+000  0.000000000000000E+000  0.000000000000000E+000
  0.000000000000000E+000  0.000000000000000E+000  0.000000000000000E+000
  0.000000000000000E+000  0.000000000000000E+000   1.00000000000000     
 -4.966208433919517E-002  0.338176362939373       0.518405185399144     
  0.227572080968125       0.000000000000000E+000  0.174776853823152     
  0.494712850028027       0.000000000000000E+000  0.379942720152450     
  1.301763653451843E-002  0.192759818566551       0.000000000000000E+000
  0.000000000000000E+000  0.125493599634809        1.00000000000000     
 -6.315696112356106E-002  0.394967772539496       0.695160660156839     
  8.369067941824644E-002  0.000000000000000E+000  6.427499182156630E-002
  0.308119147430398       0.000000000000000E+000  0.236637530234210     
  1.315588332318651E-003  1.948069202681802E-002  0.000000000000000E+000
  0.000000000000000E+000  1.268263367335803E-002  0.684799824745373     
   1.00000000000000      -4.966208433919517E-002  0.338176362939373     
  0.518405185399144      -0.227572080968125       0.000000000000000E+000
  0.174776853823152      -0.494712850028027       0.000000000000000E+000
  0.379942720152450       1.301763653451843E-002 -0.192759818566551     
  0.000000000000000E+000  0.000000000000000E+000  0.125493599634809     
  0.125660923158113       0.312249820145382        1.00000000000000     
 -6.315696112356106E-002  0.394967772539496       0.695160660156839     
 -8.369067941824644E-002  0.000000000000000E+000  6.427499182156630E-002
 -0.308119147430398       0.000000000000000E+000  0.236637530234210     
  1.315588332318651E-003 -1.948069202681802E-002  0.000000000000000E+000
  0.000000000000000E+000  1.268263367335803E-002  0.312249820145382     
  0.612739512547373       0.684799824745373        1.00000000000000     
       ----------------------
             T + V (SAO)     
       ----------------------
  -33.0465968915600        11.1222810136906       -11.3910295226877     
   5.13562499392967       -7.76543346418913       -7.10738110193004     
  0.000000000000000E+000  0.000000000000000E+000  0.000000000000000E+000
  -8.58115363819735       0.000000000000000E+000  0.000000000000000E+000
  0.000000000000000E+000  0.000000000000000E+000  -8.47055183524409     
  2.715535747104489E-002 -0.189403881181969      -0.171860296478251     
  0.000000000000000E+000  0.000000000000000E+000  -8.53578854958086     
  0.000000000000000E+000  0.000000000000000E+000  0.000000000000000E+000
  -3.86564041784362       0.000000000000000E+000  0.000000000000000E+000
  -4.84681682825707       0.000000000000000E+000  0.000000000000000E+000
  0.000000000000000E+000  0.000000000000000E+000  -3.76528632794412     
  0.000000000000000E+000  0.000000000000000E+000  -4.61876232491720     
  3.640647387638147E-003 -0.139054874926410      -0.250737525919292     
  0.000000000000000E+000  0.000000000000000E+000  -3.82447859172726     
  0.000000000000000E+000  0.000000000000000E+000  -4.75327664647744     
  1.931557144012608E-004 -9.656140787755341E-003 -1.163395746927431E-002
  0.000000000000000E+000  0.000000000000000E+000 -0.149478427795563     
  0.000000000000000E+000  0.000000000000000E+000 -0.126928857580353     
  -4.35065834581932       0.000000000000000E+000  0.000000000000000E+000
  0.000000000000000E+000 -0.216734341108263       0.000000000000000E+000
  0.000000000000000E+000 -0.222899839291841       0.000000000000000E+000
  0.000000000000000E+000  0.000000000000000E+000  -4.50105654615095     
  0.000000000000000E+000  0.000000000000000E+000  0.000000000000000E+000
  0.000000000000000E+000 -0.125347278774582       0.000000000000000E+000
  0.000000000000000E+000 -0.104610402912566       0.000000000000000E+000
  0.000000000000000E+000  0.000000000000000E+000  -4.30086090094025     
  0.000000000000000E+000  0.000000000000000E+000  0.000000000000000E+000
  0.000000000000000E+000  0.000000000000000E+000  0.000000000000000E+000
  0.000000000000000E+000  0.000000000000000E+000  0.000000000000000E+000
  0.000000000000000E+000  0.000000000000000E+000  0.000000000000000E+000
  -4.33902483344780       1.862074257939605E-003 -9.308785529712349E-002
 -0.112154552552297       0.000000000000000E+000  0.000000000000000E+000
 -4.569353116684056E-002  0.000000000000000E+000  0.000000000000000E+000
 -5.914471818963753E-002  4.900859938372815E-002  0.000000000000000E+000
  0.000000000000000E+000  0.000000000000000E+000  -4.38444037246105     
   1.62339212635668       -3.21578049925043       -3.49951255095600     
  -1.80339921580515       0.000000000000000E+000  -1.42857352495448     
  -2.55075115297739       0.000000000000000E+000  -2.01465520932244     
 -0.110541384678265       -1.21856276510270       0.000000000000000E+000
  0.000000000000000E+000 -0.794228238597135       -5.18736525460183     
   2.05988569259892       -3.74222955691721       -4.28020058845216     
 -0.653691172196686       0.000000000000000E+000 -0.583159466691477     
  -1.33633269402023       0.000000000000000E+000  -1.18076187428324     
 -3.062211115572833E-002 -0.159936159483850       0.000000000000000E+000
  0.000000000000000E+000 -0.147231048715694       -3.60009955118496     
  -4.23814536094648        1.62339212635668       -3.21578049925043     
  -3.49951255095600        1.80339921580515       0.000000000000000E+000
  -1.42857352495448        2.55075115297739       0.000000000000000E+000
  -2.01465520932244      -0.110541384678265        1.21856276510270     
  0.000000000000000E+000  0.000000000000000E+000 -0.794228238597135     
 -0.984192473059564       -1.92953428184895       -5.18736525460183     
   2.05988569259892       -3.74222955691721       -4.28020058845216     
  0.653691172196686       0.000000000000000E+000 -0.583159466691477     
   1.33633269402023       0.000000000000000E+000  -1.18076187428324     
 -3.062211115572833E-002  0.159936159483850       0.000000000000000E+000
  0.000000000000000E+000 -0.147231048715694       -1.92953428184895     
  -3.00047715914831       -3.60009955118496       -4.23814536094648     
       ----------------------------
             T + V + ECP (SAO)     
       ----------------------------
  -33.0465968915600        11.1222810136906       -11.3910295226877     
   5.13562499392967       -7.76543346418913       -7.10738110193004     
  0.000000000000000E+000  0.000000000000000E+000  0.000000000000000E+000
  -8.58115363819735       0.000000000000000E+000  0.000000000000000E+000
  0.000000000000000E+000  0.000000000000000E+000  -8.47055183524409     
  2.715535747104489E-002 -0.189403881181969      -0.171860296478251     
  0.000000000000000E+000  0.000000000000000E+000  -8.53578854958086     
  0.000000000000000E+000  0.000000000000000E+000  0.000000000000000E+000
  -3.86564041784362       0.000000000000000E+000  0.000000000000000E+000
  -4.84681682825707       0.000000000000000E+000  0.000000000000000E+000
  0.000000000000000E+000  0.000000000000000E+000  -3.76528632794412     
  0.000000000000000E+000  0.000000000000000E+000  -4.61876232491720     
  3.640647387638147E-003 -0.139054874926410      -0.250737525919292     
  0.000000000000000E+000  0.000000000000000E+000  -3.82447859172726     
  0.000000000000000E+000  0.000000000000000E+000  -4.75327664647744     
  1.931557144012608E-004 -9.656140787755341E-003 -1.163395746927431E-002
  0.000000000000000E+000  0.000000000000000E+000 -0.149478427795563     
  0.000000000000000E+000  0.000000000000000E+000 -0.126928857580353     
  -4.35065834581932       0.000000000000000E+000  0.000000000000000E+000
  0.000000000000000E+000 -0.216734341108263       0.000000000000000E+000
  0.000000000000000E+000 -0.222899839291841       0.000000000000000E+000
  0.000000000000000E+000  0.000000000000000E+000  -4.50105654615095     
  0.000000000000000E+000  0.000000000000000E+000  0.000000000000000E+000
  0.000000000000000E+000 -0.125347278774582       0.000000000000000E+000
  0.000000000000000E+000 -0.104610402912566       0.000000000000000E+000
  0.000000000000000E+000  0.000000000000000E+000  -4.30086090094025     
  0.000000000000000E+000  0.000000000000000E+000  0.000000000000000E+000
  0.000000000000000E+000  0.000000000000000E+000  0.000000000000000E+000
  0.000000000000000E+000  0.000000000000000E+000  0.000000000000000E+000
  0.000000000000000E+000  0.000000000000000E+000  0.000000000000000E+000
  -4.33902483344780       1.862074257939605E-003 -9.308785529712349E-002
 -0.112154552552297       0.000000000000000E+000  0.000000000000000E+000
 -4.569353116684056E-002  0.000000000000000E+000  0.000000000000000E+000
 -5.914471818963753E-002  4.900859938372815E-002  0.000000000000000E+000
  0.000000000000000E+000  0.000000000000000E+000  -4.38444037246105     
   1.62339212635668       -3.21578049925043       -3.49951255095600     
  -1.80339921580515       0.000000000000000E+000  -1.42857352495448     
  -2.55075115297739       0.000000000000000E+000  -2.01465520932244     
 -0.110541384678265       -1.21856276510270       0.000000000000000E+000
  0.000000000000000E+000 -0.794228238597135       -5.18736525460183     
   2.05988569259892       -3.74222955691721       -4.28020058845216     
 -0.653691172196686       0.000000000000000E+000 -0.583159466691477     
  -1.33633269402023       0.000000000000000E+000  -1.18076187428324     
 -3.062211115572833E-002 -0.159936159483850       0.000000000000000E+000
  0.000000000000000E+000 -0.147231048715694       -3.60009955118496     
  -4.23814536094648        1.62339212635668       -3.21578049925043     
  -3.49951255095600        1.80339921580515       0.000000000000000E+000
  -1.42857352495448        2.55075115297739       0.000000000000000E+000
  -2.01465520932244      -0.110541384678265        1.21856276510270     
  0.000000000000000E+000  0.000000000000000E+000 -0.794228238597135     
 -0.984192473059564       -1.92953428184895       -5.18736525460183     
   2.05988569259892       -3.74222955691721       -4.28020058845216     
  0.653691172196686       0.000000000000000E+000 -0.583159466691477     
   1.33633269402023       0.000000000000000E+000  -1.18076187428324     
 -3.062211115572833E-002  0.159936159483850       0.000000000000000E+000
  0.000000000000000E+000 -0.147231048715694       -1.92953428184895     
  -3.00047715914831       -3.60009955118496       -4.23814536094648     
 
   Difference densities algorithm switched on.
   The maximal number of linear combinations of
   difference densities is          20 .

 automatic virtual orbital shift switched on 
      shift if e(lumo)-e(homo) < 0.10000000    


 DIIS switched on: error vector is FDS-SDF
 Max. Iterations for DIIS is     :   5
 DIIS matrix (see manual) 
    Scaling factor of diagonals  :  1.200
    threshold for scaling factor :  0.000

 scf convergence criterion : increment of total energy < .1000000D-06
                  and increment of one-electron energy < .1000000D-03


 <geterg> : there is no data group $energy 


 density matrices ---> file = dens


 fock matrices ---> file = fock


 fock matrix (dfmat) ---> file = dfock


 previous density matrix ---> file = ddens


 DIIS error vectors  ---> file = errvec


 fock matrices for DIIS ---> file = oldfock

  MOs are in ASCII format !


 reading orbital data $scfmo  from file mos . 

 orbital characterization : expanded
 
 mo provided and orthogonalized by Cholesky decomposition

 DSCF restart information will be dumped onto file mos


    irrep                  1a          2a          3a          4a          5a   
 occupation              2.0000      2.0000      2.0000      2.0000      2.0000 

    irrep                  6a          7a          8a          9a         10a   
 
 closed-shell fock matrix
      1  -0.201792421D+02      2   0.736345052D+01      3  -0.346059124D+01      4   0.344925629D+01
      5  -0.231539015D+01      6  -0.152926517D+01      7  -0.205585779D-15      8  -0.159302575D-15
      9   0.246953512D-15     10   0.385636048D-01     11   0.400812512D-16     12   0.304514401D-16
     13  -0.317806855D-16     14   0.183900769D-15     15  -0.111431971D-01     16   0.392766568D-01
     17  -0.137314412D+00     18  -0.144891746D+00     19  -0.241451824D-15     20   0.824980240D-16
     21  -0.332749509D-01     22  -0.499989503D-16     23  -0.290954112D-15     24   0.169934937D-15
     25  -0.679282734D+00     26  -0.671962485D-17     27  -0.160808238D-15     28  -0.188841939D+00
     29   0.841703455D-17     30   0.263596365D-16     31  -0.373971491D-16     32   0.112532080D-15
     33  -0.614604360D+00     34   0.501555061D-16     35  -0.193363842D-16     36   0.697328696D-01
     37   0.511059460D-02     38  -0.124269122D+00     39  -0.240173097D+00     40  -0.973859067D-16
     41  -0.967560267D-17     42  -0.665760126D+00     43   0.650521303D-17     44  -0.136928812D-16
     45  -0.710182754D-01     46   0.125015286D-02     47  -0.108087027D-01     48  -0.116787506D-01
     49  -0.857047260D-16     50   0.194556104D-16     51  -0.132580438D+00     52  -0.661496433D-16
     53   0.135444395D-16     54  -0.110335472D+00     55   0.303853067D+01     56   0.167322511D-16
     57  -0.941926473D-16     58  -0.451580053D-16     59  -0.236075907D+00     60  -0.695518637D-16
     61   0.181557275D-15     62  -0.243824393D+00     63  -0.492899805D-16     64   0.151917398D-15
     65   0.586840957D-16     66   0.288494717D+01     67  -0.458407091D-17     68   0.372677886D-17
     69  -0.742946615D-18     70  -0.360746069D-17     71  -0.110467633D+00     72  -0.408399034D-16
     73  -0.950279361D-17     74  -0.907940171D-01     75  -0.320155810D-16     76  -0.160472671D-17
     77  -0.955487689D-17     78   0.308302952D+01     79  -0.100214464D-16     80   0.819226878D-17
     81  -0.733157507D-18     82  -0.421015326D-16     83   0.138932143D-15     84  -0.360746069D-17
     85  -0.353401572D-16     86   0.136082252D-15     87  -0.950279361D-17     88   0.638787376D-17
     89  -0.566688041D-17     90   0.757586268D-16     91   0.304718093D+01     92  -0.383294362D-02
     93  -0.897068630D-01     94  -0.113894947D+00     95  -0.496382120D-16     96   0.937359861D-17
     97  -0.543070895D-01     98  -0.681588356D-16     99   0.622344278D-17    100  -0.697402516D-01
    101   0.440894322D-01    102   0.217381352D-16    103   0.908277269D-18    104  -0.316881347D-17
    105   0.299880892D+01    106   0.109995205D+01    107  -0.104632169D+01    108  -0.806453146D+00
    109  -0.444989405D+00    110  -0.117282840D-15    111  -0.373771719D+00    112  -0.276217672D+00
    113  -0.103502242D-15    114  -0.246344014D+00    115  -0.249761264D-01    116  -0.434650667D-01
    117  -0.243783895D-16    118  -0.305360901D-16    119  -0.272115537D-01    120  -0.492633986D+00
    121   0.139017069D+01    122  -0.120921202D+01    123  -0.872734559D+00    124  -0.190972273D+00
    125  -0.100322484D-15    126  -0.221498846D+00    127  -0.102374623D+00    128  -0.944264411D-16
    129  -0.219704412D+00    130  -0.205627070D-01    131  -0.545225306D-01    132  -0.117607998D-16
    133  -0.153293331D-16    134  -0.796482567D-01    135  -0.628293724D+00    136  -0.514486896D+00
    137   0.109995205D+01    138  -0.104632169D+01    139  -0.806453146D+00    140   0.444989405D+00
    141   0.745670450D-17    142  -0.373771719D+00    143   0.276217672D+00    144   0.362941129D-17
    145  -0.246344014D+00    146  -0.249761264D-01    147   0.434650667D-01    148  -0.232032249D-17
    149   0.732395666D-17    150  -0.272115537D-01    151  -0.308932325D+00    152  -0.439991548D+00
    153  -0.492633986D+00    154   0.139017069D+01    155  -0.120921202D+01    156  -0.872734559D+00
    157   0.190972273D+00    158  -0.365051618D-16    159  -0.221498846D+00    160   0.102374623D+00
    161  -0.371709648D-16    162  -0.219704412D+00    163  -0.205627070D-01    164   0.545225306D-01
    165  -0.365274357D-17    166   0.238339888D-17    167  -0.796482567D-01    168  -0.439991548D+00
    169  -0.487109301D+00    170  -0.628293724D+00    171  -0.514486896D+00
 
                                              current damping :  0.300
 ITERATION  ENERGY          1e-ENERGY        2e-ENERGY     NORM[dD(SAO)]  TOL
   1  -75.738861100248    -124.43866883     39.392652955    0.000D+00 0.175D-09
          max. resid. norm for Fia-block=  2.875D-01 for orbital      1a         
          max. resid. fock norm         =  1.400D+00 for orbital      8a         

 convergence criteria cannot be satisfied within  1 iterations !


                  ------------------------------------------ 
                 |  total energy      =    -75.73886110025  |
                  ------------------------------------------ 
                 :  kinetic energy    =     76.85632361084  :
                 :  potential energy  =   -152.59518471108  :
                 :  virial theorem    =      2.01475414991  :
                 :  wavefunction norm =      1.00000000000  :
                  .......................................... 


 ATTENTION : $energy will not be updated since 
 this calculation did not converge (sob) 

 A POSSIBLE REASON MAY BE THAT ...
 - THE GEOMETRY IS FAR FROM BEING REASONABLE

    irrep                  1a          2a          3a          4a          5a   
 eigenvalues H        -20.30040    -1.23647    -0.64564    -0.49752    -0.44400
            eV        -552.4063    -33.6464    -17.5688    -13.5383    -12.0819
 occupation              2.0000      2.0000      2.0000      2.0000      2.0000 

    irrep                  6a          7a          8a          9a         10a   
 eigenvalues H          0.58236     0.65501     1.08306     1.15929     1.45441
            eV          15.8470     17.8240     29.4719     31.5462     39.5769
 
 
 
 
 ==============================================================================
                           electrostatic moments
 ==============================================================================
 
              nuc           elec       ->  total
 ------------------------------------------------------------------------------
                          charge      
 ------------------------------------------------------------------------------
          10.000000     -10.000000      -0.000000
 
 ------------------------------------------------------------------------------
                       dipole moment  
 ------------------------------------------------------------------------------
   x       0.000000       0.000000       0.000000
   y       0.000000      -0.000000      -0.000000
   z      -5.079052       6.140576       1.061524
 
   | dipole moment | =     1.0615 a.u. =     2.6981 debye 
 
 ------------------------------------------------------------------------------
                     quadrupole moment
 ------------------------------------------------------------------------------
  xx       4.016539      -7.234151      -3.217612
  yy       0.000000      -5.530690      -5.530690
  zz       4.474951     -10.154683      -5.679732
  xy       0.000000       0.000000       0.000000
  xz       0.000000      -0.000000      -0.000000
  yz       0.000000       0.000000       0.000000
 
     1/3  trace=      -4.809345
     anisotropy=       2.391086
 
 ==============================================================================
 

 ATTENTION: dscf did not converge! 



    ------------------------------------------------------------------------
         total  cpu-time :   0.02 seconds
         total wall-time :   0.06 seconds
    ------------------------------------------------------------------------


   ****  dscf : all done  ****


    2014-12-27 17:00:46.262 

