 Entering Gaussian System, Link 0=g09
 Input=gaussian.gjf
 Output=gaussian.log
 Initial command:
 /opt//g09/l1.exe /tmp/Gau-31467.inp -scrdir=/tmp/
 Entering Link 1 = /opt//g09/l1.exe PID=     31469.
  
 Copyright (c) 1988,1990,1992,1993,1995,1998,2003,2009, Gaussian, Inc.
                  All Rights Reserved.
  
 This is part of the Gaussian(R) 09 program.  It is based on
 the Gaussian(R) 03 system (copyright 2003, Gaussian, Inc.),
 the Gaussian(R) 98 system (copyright 1998, Gaussian, Inc.),
 the Gaussian(R) 94 system (copyright 1995, Gaussian, Inc.),
 the Gaussian 92(TM) system (copyright 1992, Gaussian, Inc.),
 the Gaussian 90(TM) system (copyright 1990, Gaussian, Inc.),
 the Gaussian 88(TM) system (copyright 1988, Gaussian, Inc.),
 the Gaussian 86(TM) system (copyright 1986, Carnegie Mellon
 University), and the Gaussian 82(TM) system (copyright 1983,
 Carnegie Mellon University). Gaussian is a federally registered
 trademark of Gaussian, Inc.
  
 This software contains proprietary and confidential information,
 including trade secrets, belonging to Gaussian, Inc.
  
 This software is provided under written license and may be
 used, copied, transmitted, or stored only in accord with that
 written license.
  
 The following legend is applicable only to US Government
 contracts under FAR:
  
                    RESTRICTED RIGHTS LEGEND
  
 Use, reproduction and disclosure by the US Government is
 subject to restrictions as set forth in subparagraphs (a)
 and (c) of the Commercial Computer Software - Restricted
 Rights clause in FAR 52.227-19.
  
 Gaussian, Inc.
 340 Quinnipiac St., Bldg. 40, Wallingford CT 06492
  
  
 ---------------------------------------------------------------
 Warning -- This program may not be used in any manner that
 competes with the business of Gaussian, Inc. or will provide
 assistance to any competitor of Gaussian, Inc.  The licensee
 of this program is prohibited from giving any competitor of
 Gaussian, Inc. access to this program.  By using this program,
 the user acknowledges that Gaussian, Inc. is engaged in the
 business of creating and licensing software in the field of
 computational chemistry and represents and warrants to the
 licensee that it is not a competitor of Gaussian, Inc. and that
 it will not use this program in any manner prohibited above.
 ---------------------------------------------------------------
  

 Cite this work as:
 Gaussian 09, Revision A.01,
 M. J. Frisch, G. W. Trucks, H. B. Schlegel, G. E. Scuseria, 
 M. A. Robb, J. R. Cheeseman, G. Scalmani, V. Barone, B. Mennucci, 
 G. A. Petersson, H. Nakatsuji, M. Caricato, X. Li, H. P. Hratchian, 
 A. F. Izmaylov, J. Bloino, G. Zheng, J. L. Sonnenberg, M. Hada, 
 M. Ehara, K. Toyota, R. Fukuda, J. Hasegawa, M. Ishida, T. Nakajima, 
 Y. Honda, O. Kitao, H. Nakai, T. Vreven, J. A. Montgomery, Jr., 
 J. E. Peralta, F. Ogliaro, M. Bearpark, J. J. Heyd, E. Brothers, 
 K. N. Kudin, V. N. Staroverov, R. Kobayashi, J. Normand, 
 K. Raghavachari, A. Rendell, J. C. Burant, S. S. Iyengar, J. Tomasi, 
 M. Cossi, N. Rega, J. M. Millam, M. Klene, J. E. Knox, J. B. Cross, 
 V. Bakken, C. Adamo, J. Jaramillo, R. Gomperts, R. E. Stratmann, 
 O. Yazyev, A. J. Austin, R. Cammi, C. Pomelli, J. W. Ochterski, 
 R. L. Martin, K. Morokuma, V. G. Zakrzewski, G. A. Voth, 
 P. Salvador, J. J. Dannenberg, S. Dapprich, A. D. Daniels, 
 O. Farkas, J. B. Foresman, J. V. Ortiz, J. Cioslowski, 
 and D. J. Fox, Gaussian, Inc., Wallingford CT, 2009.
 
 ******************************************
 Gaussian 09:  EM64L-G09RevA.01  8-May-2009
                10-Jan-2014 
 ******************************************
 %chk=gaussian.chk
 %mem=1GB
 %nproc=2
 Will use up to    2 processors via shared memory.
 --------------------------------------------------------------
 # b3lyp/6-31G** scf=(tight,maxcycle=10000) iop(9/40=20) nosymm
 --------------------------------------------------------------
 1/38=1/1;
 2/12=2,15=1,17=6,18=5,40=1/2;
 3/5=1,6=6,7=101,11=2,16=1,25=1,30=1,74=-5/1,2,3;
 4//1;
 5/5=2,7=10000,32=2,38=5/2;
 6/7=2,8=2,9=2,10=2,28=1/1;
 99/5=1,9=1/99;
 -------
 [0] [0]
 -------
 Symbolic Z-matrix:
 Charge =  1 Multiplicity = 1
 n                    -2.3414    1.07822   0. 
 c                    -1.30538   0.29029   0. 
 h                    -2.47515   1.20001  -0.50855 
 h                    -2.23386   1.52832   0.27784 
 h                    -1.42507  -0.1793   -0.29285 
 h                    -0.86936   0.55612  -0.24459 
 
                          Input orientation:                          
 ---------------------------------------------------------------------
 Center     Atomic      Atomic             Coordinates (Angstroms)
 Number     Number       Type             X           Y           Z
 ---------------------------------------------------------------------
      1          7           0       -2.341402    1.078225    0.000000
      2          6           0       -1.305384    0.290291    0.000000
      3          1           0       -2.475146    1.200009   -0.508550
      4          1           0       -2.233863    1.528316    0.277839
      5          1           0       -1.425068   -0.179301   -0.292852
      6          1           0       -0.869364    0.556123   -0.244586
 ---------------------------------------------------------------------
                    Distance matrix (angstroms):
                    1          2          3          4          5
     1  N    0.000000
     2  C    1.301604   0.000000
     3  H    0.539761   1.566701   0.000000
     4  H    0.539761   1.572251   0.885669   0.000000
     5  H    1.583288   0.566218   1.746907   1.973776   0.000000
     6  H    1.580920   0.566218   1.750087   1.754977   0.923031
                    6
     6  H    0.000000
 Symmetry turned off by external request.
 Stoichiometry    CH4N(1+)
 Framework group  C1[X(CH4N)]
 Deg. of freedom    12
 Full point group                 C1      NOp   1
 Rotational constants (GHZ):    480.2101307     35.6598387     34.9388750
 Standard basis: 6-31G(d,p) (6D, 7F)
 Integral buffers will be    131072 words long.
 Raffenetti 2 integral format.
 Two-electron integral symmetry is turned off.
    50 basis functions,    84 primitive gaussians,    50 cartesian basis functions
     8 alpha electrons        8 beta electrons
       nuclear repulsion energy        53.0903335376 Hartrees.
 NAtoms=    6 NActive=    6 NUniq=    6 SFac= 7.50D-01 NAtFMM=   80 NAOKFM=F Big=F
 One-electron integrals computed using PRISM.
 NBasis=    50 RedAO= T  NBF=    50
 NBsUse=    50 1.00D-06 NBFU=    50
 Harris functional with IExCor=  402 diagonalized for initial guess.
 ExpMin= 1.61D-01 ExpMax= 4.17D+03 ExpMxC= 6.27D+02 IAcc=1 IRadAn=         1 AccDes= 0.00D+00
 HarFok:  IExCor=  402 AccDes= 0.00D+00 IRadAn=         1 IDoV= 1
 ScaDFX=  1.000000  1.000000  1.000000  1.000000
 FoFCou: FMM=F IPFlag=           0 FMFlag=      100000 FMFlg1=           0
         NFxFlg=           0 DoJE=T BraDBF=F KetDBF=T FulRan=T
         Omega=  0.000000  0.000000  1.000000  0.000000  0.000000 ICntrl=     500 IOpCl=  0
         NMat0=    1 NMatS0=    1 NMatT0=    0 NMatD0=    1 NMtDS0=    0 NMtDT0=    0
         I1Cent=           4 NGrid=           0.
 Symmetry not used in FoFCou.
 Requested convergence on RMS density matrix=1.00D-08 within**** cycles.
 Requested convergence on MAX density matrix=1.00D-06.
 Requested convergence on             energy=1.00D-06.
 No special actions if energy rises.
 Keep R1 ints in memory in canonical form, NReq=101789175.
 Integral accuracy reduced to 1.0D-05 until final iterations.
 Initial convergence to 1.0D-05 achieved.  Increase integral accuracy.
 SCF Done:  E(RB3LYP) =  -92.3280245384     A.U. after   14 cycles
             Convg  =    0.3775D-08             -V/T =  1.9157

 **********************************************************************

            Population analysis using the SCF density.

 **********************************************************************

 Alpha  occ. eigenvalues --  -14.70602 -10.64531  -1.46419  -1.19557  -1.05181
 Alpha  occ. eigenvalues --   -0.94607  -0.89984  -0.66038
 Alpha virt. eigenvalues --   -0.49489  -0.12237  -0.05396  -0.01306   0.01878
 Alpha virt. eigenvalues --    0.02652   0.17371   0.20475   0.23422   0.38123
 Alpha virt. eigenvalues --    0.41960   0.49321   0.62080   0.84630   0.97210
 Alpha virt. eigenvalues --    0.99488   1.09665   1.12829   1.17372   1.20531
 Alpha virt. eigenvalues --    1.63513   1.73812   1.83641   2.16487   2.35446
 Alpha virt. eigenvalues --    2.42763   2.54367   2.58138   2.62603   2.70753
 Alpha virt. eigenvalues --    2.91483   3.00400   3.11275   3.26063   3.51912
 Alpha virt. eigenvalues --    3.65231   3.77710   3.90418   6.30273   6.58103
 Alpha virt. eigenvalues --    9.32210   9.82097
          Condensed to atoms (all electrons):
              1          2          3          4          5          6
     1  N    5.568566   0.528331   0.425381   0.395691  -0.031103  -0.037817
     2  C    0.528331   4.155942  -0.004553  -0.024457   0.329778   0.354405
     3  H    0.425381  -0.004553   0.558509  -0.057698  -0.012500   0.012123
     4  H    0.395691  -0.024457  -0.057698   0.572187   0.012039  -0.012743
     5  H   -0.031103   0.329778  -0.012500   0.012039   0.754581  -0.059164
     6  H   -0.037817   0.354405   0.012123  -0.012743  -0.059164   0.754796
 Mulliken atomic charges:
              1
     1  N    0.150952
     2  C    0.660555
     3  H    0.078738
     4  H    0.114983
     5  H    0.006370
     6  H   -0.011599
 Sum of Mulliken atomic charges =   1.00000
 Mulliken charges with hydrogens summed into heavy atoms:
              1
     1  N    0.344673
     2  C    0.655327
 Sum of Mulliken charges with hydrogens summed into heavy atoms =   1.00000
 Electronic spatial extent (au):  <R**2>=            277.5051
 Charge=              1.0000 electrons
 Dipole moment (field-independent basis, Debye):
    X=             -7.7717    Y=              3.4950    Z=             -0.3345  Tot=              8.5279
 Quadrupole moment (field-independent basis, Debye-Ang):
   XX=              3.7959   YY=             -4.7700   ZZ=             -8.4629
   XY=             -7.3781   XZ=              1.1386   YZ=             -0.4025
 Traceless Quadrupole moment (field-independent basis, Debye-Ang):
   XX=              6.9416   YY=             -1.6243   ZZ=             -5.3172
   XY=             -7.3781   XZ=              1.1386   YZ=             -0.4025
 Octapole moment (field-independent basis, Debye-Ang**2):
  XXX=             28.8830  YYY=            -12.9273  ZZZ=              0.2934  XYY=              6.7139
  XXY=              9.3246  XXZ=             -3.2918  XZZ=             15.6849  YZZ=             -5.8259
  YYZ=             -0.0138  XYZ=              1.0743
 Hexadecapole moment (field-independent basis, Debye-Ang**3):
 XXXX=           -175.7179 YYYY=            -33.9424 ZZZZ=             -6.6502 XXXY=              7.7673
 XXXZ=              9.2146 YYYX=             26.2990 YYYZ=              0.1060 ZZZX=              0.0739
 ZZZY=             -0.2129 XXYY=            -18.8629 XXZZ=            -33.8557 YYZZ=             -7.5639
 XXYZ=             -3.0508 YYXZ=              0.5622 ZZXY=             12.4641
 N-N= 5.309033353759D+01 E-N=-3.200198221228D+02  KE= 1.008258720767D+02

 Test job not archived.
 1\1\GINC-EAM\SP\RB3LYP\6-31G(d,p)\C1H4N1(1+)\DULIKAI\10-Jan-2014\0\\# 
 b3lyp/6-31G** scf=(tight,maxcycle=10000) iop(9/40=20) nosymm\\[0] [0]\
 \1,1\N,0,-2.3414018,1.0782246,0.\C,0,-1.3053844,0.2902906,0.\H,0,-2.47
 5146,1.2000094,-0.5085497\H,0,-2.2338625,1.5283161,0.2778391\H,0,-1.42
 50684,-0.179301,-0.2928518\H,0,-0.8693637,0.5561227,-0.2445856\\Versio
 n=EM64L-G09RevA.01\HF=-92.3280245\RMSD=3.775e-09\Dipole=0.413434,-0.00
 27403,-0.0461966\Quadrupole=5.1608863,-1.2076439,-3.9532425,-5.4854682
 ,0.8465039,-0.2992658\PG=C01 [X(C1H4N1)]\\@


 AND HERE I AM, FOR ALL MY LORE,
 THE WRETCHED FOOL I WAS BEFORE.
 CALLED MASTER OF ARTS, AND DOCTOR TO BOOT,
 FOR TEN YEARS ALMOST I CONFUTE
 AND UP AND DOWN, WHEREVER IT GOES
 I DRAG MY STUDENTS BY THE NOSE --
 AND SEE THAT FOR ALL OUR SCIENCE AND ART
 WE CAN KNOW NOTHING.  IT BURNS MY HEART.

                                       -- FAUST
 Job cpu time:  0 days  0 hours  0 minutes  4.3 seconds.
 File lengths (MBytes):  RWF=      5 Int=      0 D2E=      0 Chk=      1 Scr=      1
 Normal termination of Gaussian 09 at Fri Jan 10 13:44:50 2014.
 Initial command:
 /opt//g09/l1.exe /tmp/Gau-31467.inp -scrdir=/tmp/
 Entering Link 1 = /opt//g09/l1.exe PID=     31481.
  
 Copyright (c) 1988,1990,1992,1993,1995,1998,2003,2009, Gaussian, Inc.
                  All Rights Reserved.
  
 This is part of the Gaussian(R) 09 program.  It is based on
 the Gaussian(R) 03 system (copyright 2003, Gaussian, Inc.),
 the Gaussian(R) 98 system (copyright 1998, Gaussian, Inc.),
 the Gaussian(R) 94 system (copyright 1995, Gaussian, Inc.),
 the Gaussian 92(TM) system (copyright 1992, Gaussian, Inc.),
 the Gaussian 90(TM) system (copyright 1990, Gaussian, Inc.),
 the Gaussian 88(TM) system (copyright 1988, Gaussian, Inc.),
 the Gaussian 86(TM) system (copyright 1986, Carnegie Mellon
 University), and the Gaussian 82(TM) system (copyright 1983,
 Carnegie Mellon University). Gaussian is a federally registered
 trademark of Gaussian, Inc.
  
 This software contains proprietary and confidential information,
 including trade secrets, belonging to Gaussian, Inc.
  
 This software is provided under written license and may be
 used, copied, transmitted, or stored only in accord with that
 written license.
  
 The following legend is applicable only to US Government
 contracts under FAR:
  
                    RESTRICTED RIGHTS LEGEND
  
 Use, reproduction and disclosure by the US Government is
 subject to restrictions as set forth in subparagraphs (a)
 and (c) of the Commercial Computer Software - Restricted
 Rights clause in FAR 52.227-19.
  
 Gaussian, Inc.
 340 Quinnipiac St., Bldg. 40, Wallingford CT 06492
  
  
 ---------------------------------------------------------------
 Warning -- This program may not be used in any manner that
 competes with the business of Gaussian, Inc. or will provide
 assistance to any competitor of Gaussian, Inc.  The licensee
 of this program is prohibited from giving any competitor of
 Gaussian, Inc. access to this program.  By using this program,
 the user acknowledges that Gaussian, Inc. is engaged in the
 business of creating and licensing software in the field of
 computational chemistry and represents and warrants to the
 licensee that it is not a competitor of Gaussian, Inc. and that
 it will not use this program in any manner prohibited above.
 ---------------------------------------------------------------
  

 Cite this work as:
 Gaussian 09, Revision A.01,
 M. J. Frisch, G. W. Trucks, H. B. Schlegel, G. E. Scuseria, 
 M. A. Robb, J. R. Cheeseman, G. Scalmani, V. Barone, B. Mennucci, 
 G. A. Petersson, H. Nakatsuji, M. Caricato, X. Li, H. P. Hratchian, 
 A. F. Izmaylov, J. Bloino, G. Zheng, J. L. Sonnenberg, M. Hada, 
 M. Ehara, K. Toyota, R. Fukuda, J. Hasegawa, M. Ishida, T. Nakajima, 
 Y. Honda, O. Kitao, H. Nakai, T. Vreven, J. A. Montgomery, Jr., 
 J. E. Peralta, F. Ogliaro, M. Bearpark, J. J. Heyd, E. Brothers, 
 K. N. Kudin, V. N. Staroverov, R. Kobayashi, J. Normand, 
 K. Raghavachari, A. Rendell, J. C. Burant, S. S. Iyengar, J. Tomasi, 
 M. Cossi, N. Rega, J. M. Millam, M. Klene, J. E. Knox, J. B. Cross, 
 V. Bakken, C. Adamo, J. Jaramillo, R. Gomperts, R. E. Stratmann, 
 O. Yazyev, A. J. Austin, R. Cammi, C. Pomelli, J. W. Ochterski, 
 R. L. Martin, K. Morokuma, V. G. Zakrzewski, G. A. Voth, 
 P. Salvador, J. J. Dannenberg, S. Dapprich, A. D. Daniels, 
 O. Farkas, J. B. Foresman, J. V. Ortiz, J. Cioslowski, 
 and D. J. Fox, Gaussian, Inc., Wallingford CT, 2009.
 
 ******************************************
 Gaussian 09:  EM64L-G09RevA.01  8-May-2009
                10-Jan-2014 
 ******************************************
 %chk=gaussian.chk
 %mem=1GB
 %nproc=2
 Will use up to    2 processors via shared memory.
 ----------------------------------------------------------------------
 # force b3lyp/ChkBasis scf=(tight,maxcycle=10000) iop(9/40=20) nosymm 
 geom=AllCheck Guess=Read
 ----------------------------------------------------------------------
 1/10=7,29=7,30=1,38=1/1,3;
 2/12=2,15=1,40=1/2;
 3/5=7,6=2,11=2,14=-4,16=1,25=1,30=1,67=1,71=1,74=-5,116=-2/1,2,3;
 4/5=1/1;
 5/5=2,7=10000,32=2,38=6/2;
 6/7=2,8=2,9=2,10=2,28=1/1;
 7/29=1,30=1/1,2,3,16;
 1/10=7,30=1/3;
 99//99;
 -------
 [0] [0]
 -------
 Z-Matrix taken from the checkpoint file:
 gaussian.chk
 Charge =  1 Multiplicity = 1
 N,0,-2.3414018,1.0782246,0.
 C,0,-1.3053844,0.2902906,0.
 H,0,-2.475146,1.2000094,-0.5085497
 H,0,-2.2338625,1.5283161,0.2778391
 H,0,-1.4250684,-0.179301,-0.2928518
 H,0,-0.8693637,0.5561227,-0.2445856
 Recover connectivity data from disk.

 GradGradGradGradGradGradGradGradGradGradGradGradGradGradGradGradGradGrad
 Berny optimization.
 Initialization pass.
 Trust Radius=3.00D-01 FncErr=1.00D-07 GrdErr=1.00D-07
 Number of steps in this run=   2 maximum allowed number of steps=   2.
 GradGradGradGradGradGradGradGradGradGradGradGradGradGradGradGradGradGrad

                          Input orientation:                          
 ---------------------------------------------------------------------
 Center     Atomic      Atomic             Coordinates (Angstroms)
 Number     Number       Type             X           Y           Z
 ---------------------------------------------------------------------
      1          7           0       -2.341402    1.078225    0.000000
      2          6           0       -1.305384    0.290291    0.000000
      3          1           0       -2.475146    1.200009   -0.508550
      4          1           0       -2.233863    1.528316    0.277839
      5          1           0       -1.425068   -0.179301   -0.292852
      6          1           0       -0.869364    0.556123   -0.244586
 ---------------------------------------------------------------------
                    Distance matrix (angstroms):
                    1          2          3          4          5
     1  N    0.000000
     2  C    1.301604   0.000000
     3  H    0.539761   1.566701   0.000000
     4  H    0.539761   1.572251   0.885669   0.000000
     5  H    1.583288   0.566218   1.746907   1.973776   0.000000
     6  H    1.580920   0.566218   1.750087   1.754977   0.923031
                    6
     6  H    0.000000
 Symmetry turned off by external request.
 Stoichiometry    CH4N(1+)
 Framework group  C1[X(CH4N)]
 Deg. of freedom    12
 Full point group                 C1      NOp   1
 Rotational constants (GHZ):    480.2101307     35.6598387     34.9388750
 Basis read from chk: gaussian.chk (6D, 7F)
 Integral buffers will be    131072 words long.
 Raffenetti 2 integral format.
 Two-electron integral symmetry is turned off.
    50 basis functions,    84 primitive gaussians,    50 cartesian basis functions
     8 alpha electrons        8 beta electrons
       nuclear repulsion energy        53.0903335376 Hartrees.
 NAtoms=    6 NActive=    6 NUniq=    6 SFac= 7.50D-01 NAtFMM=   80 NAOKFM=F Big=F
 One-electron integrals computed using PRISM.
 NBasis=    50 RedAO= T  NBF=    50
 NBsUse=    50 1.00D-06 NBFU=    50
 Initial guess read from the checkpoint file:  gaussian.chk
 B after Tr=     0.000000    0.000000    0.000000
         Rot=    1.000000    0.000000    0.000000    0.000000 Ang=   0.00 deg.
 Requested convergence on RMS density matrix=1.00D-08 within**** cycles.
 Requested convergence on MAX density matrix=1.00D-06.
 Requested convergence on             energy=1.00D-06.
 No special actions if energy rises.
 Keep R1 ints in memory in canonical form, NReq=101789175.
 SCF Done:  E(RB3LYP) =  -92.3280245384     A.U. after    1 cycles
             Convg  =    0.9858D-09             -V/T =  1.9157

 **********************************************************************

            Population analysis using the SCF density.

 **********************************************************************

 Alpha  occ. eigenvalues --  -14.70602 -10.64531  -1.46419  -1.19557  -1.05181
 Alpha  occ. eigenvalues --   -0.94607  -0.89984  -0.66038
 Alpha virt. eigenvalues --   -0.49489  -0.12237  -0.05396  -0.01306   0.01878
 Alpha virt. eigenvalues --    0.02652   0.17371   0.20475   0.23422   0.38123
 Alpha virt. eigenvalues --    0.41960   0.49321   0.62080   0.84630   0.97210
 Alpha virt. eigenvalues --    0.99488   1.09665   1.12829   1.17372   1.20531
 Alpha virt. eigenvalues --    1.63513   1.73812   1.83641   2.16487   2.35446
 Alpha virt. eigenvalues --    2.42763   2.54367   2.58138   2.62603   2.70753
 Alpha virt. eigenvalues --    2.91483   3.00400   3.11275   3.26063   3.51912
 Alpha virt. eigenvalues --    3.65231   3.77710   3.90418   6.30273   6.58103
 Alpha virt. eigenvalues --    9.32210   9.82097
          Condensed to atoms (all electrons):
              1          2          3          4          5          6
     1  N    5.568566   0.528331   0.425381   0.395691  -0.031103  -0.037817
     2  C    0.528331   4.155942  -0.004553  -0.024457   0.329778   0.354405
     3  H    0.425381  -0.004553   0.558509  -0.057698  -0.012500   0.012123
     4  H    0.395691  -0.024457  -0.057698   0.572187   0.012039  -0.012743
     5  H   -0.031103   0.329778  -0.012500   0.012039   0.754581  -0.059164
     6  H   -0.037817   0.354405   0.012123  -0.012743  -0.059164   0.754796
 Mulliken atomic charges:
              1
     1  N    0.150952
     2  C    0.660555
     3  H    0.078738
     4  H    0.114983
     5  H    0.006370
     6  H   -0.011599
 Sum of Mulliken atomic charges =   1.00000
 Mulliken charges with hydrogens summed into heavy atoms:
              1
     1  N    0.344674
     2  C    0.655326
 Sum of Mulliken charges with hydrogens summed into heavy atoms =   1.00000
 Electronic spatial extent (au):  <R**2>=            277.5051
 Charge=              1.0000 electrons
 Dipole moment (field-independent basis, Debye):
    X=             -7.7717    Y=              3.4950    Z=             -0.3345  Tot=              8.5279
 Quadrupole moment (field-independent basis, Debye-Ang):
   XX=              3.7959   YY=             -4.7700   ZZ=             -8.4629
   XY=             -7.3781   XZ=              1.1386   YZ=             -0.4025
 Traceless Quadrupole moment (field-independent basis, Debye-Ang):
   XX=              6.9416   YY=             -1.6243   ZZ=             -5.3172
   XY=             -7.3781   XZ=              1.1386   YZ=             -0.4025
 Octapole moment (field-independent basis, Debye-Ang**2):
  XXX=             28.8830  YYY=            -12.9273  ZZZ=              0.2934  XYY=              6.7139
  XXY=              9.3246  XXZ=             -3.2918  XZZ=             15.6849  YZZ=             -5.8259
  YYZ=             -0.0138  XYZ=              1.0743
 Hexadecapole moment (field-independent basis, Debye-Ang**3):
 XXXX=           -175.7179 YYYY=            -33.9424 ZZZZ=             -6.6502 XXXY=              7.7673
 XXXZ=              9.2146 YYYX=             26.2990 YYYZ=              0.1060 ZZZX=              0.0739
 ZZZY=             -0.2129 XXYY=            -18.8629 XXZZ=            -33.8557 YYZZ=             -7.5639
 XXYZ=             -3.0508 YYXZ=              0.5622 ZZXY=             12.4641
 N-N= 5.309033353759D+01 E-N=-3.200198216429D+02  KE= 1.008258718614D+02
 Calling FoFJK, ICntrl=      2127 FMM=F ISym2X=0 I1Cent= 0 IOpClX= 0 NMat=1 NMatS=1 NMatT=0.
 -------------------------------------------------------------------
 Center     Atomic                   Forces (Hartrees/Bohr)
 Number     Number              X              Y              Z
 -------------------------------------------------------------------
      1        7           0.181822734   -2.596048677    1.112303276
      2        6          -1.243821912    0.759668471    1.848107930
      3        1          -0.731294136    0.506351521   -2.394635773
      4        1           0.509861285    2.118721752    1.305015224
      5        1          -0.458907020   -1.802592228   -1.080450965
      6        1           1.742339050    1.013899161   -0.790339692
 -------------------------------------------------------------------
 Cartesian Forces:  Max     2.596048677 RMS     1.411118348

 GradGradGradGradGradGradGradGradGradGradGradGradGradGradGradGradGradGrad
 Berny optimization.
 Search for a local minimum.
 Step number   1 out of a maximum of    2
 All quantities printed in internal units (Hartrees-Bohrs-Radians)
 Second derivative matrix not updated -- first step.
 The second derivative matrix:
                          X1        Y1        Z1        X2        Y2
           X1           1.79218
           Y1           0.40836   5.30871
           Z1           1.78636   1.07878   7.16734
           X2          -0.55160   0.25848  -0.10473   3.90406
           Y2           0.14615  -0.33583   0.05300   2.05846   4.92328
           Z2           0.05237  -0.02285  -0.21242  -1.01057   1.00798
           X3          -0.66696   0.26298  -1.17918   0.03813   0.05013
           Y3           0.34657  -0.73840   1.32198   0.02493   0.03278
           Z3          -1.28921   1.12299  -5.24832  -0.00406  -0.00534
           X4          -0.59089  -0.95253  -0.61191   0.04728   0.06217
           Y4          -0.93002  -4.27254  -2.40698  -0.01873  -0.02463
           Z4          -0.54873  -2.17788  -1.78690   0.01204   0.01583
           X5           0.03676   0.04833   0.05830  -0.54430  -0.72947
           Y5          -0.00650  -0.00855  -0.02370  -0.78729  -3.29245
           Z5          -0.00460  -0.00604   0.01418  -0.49667  -2.02301
           X6          -0.01948  -0.02561   0.05116  -2.89356  -1.58744
           Y6           0.03545   0.04661  -0.02308  -1.53585  -1.30314
           Z6           0.00380   0.00500   0.06612   1.60398   0.95153
                          Z2        X3        Y3        Z3        X4
           Z2           2.99081
           X3          -0.07259   0.58781
           Y3           0.03928  -0.30368   0.64476
           Z3           0.02850   1.37073  -1.08839   5.42359
           X4           0.01779   0.05239  -0.05287  -0.07687   0.48495
           Y4          -0.01963   0.00551   0.08051  -0.02849   0.93499
           Z4           0.02492  -0.11800  -0.27161  -0.20372   0.67047
           X5          -0.41581  -0.00620  -0.00816  -0.00032   0.00342
           Y5          -1.82556  -0.00816  -0.01072  -0.00042   0.00450
           Z5          -1.59328   0.01561   0.02053   0.00081  -0.00861
           X6           1.42881  -0.00516  -0.00679  -0.00027   0.00285
           Y6           0.82077  -0.00679  -0.00892  -0.00035   0.00374
           Z6          -1.23853  -0.01658  -0.02180  -0.00086   0.00914
                          Y4        Z4        X5        Y5        Z5
           Y4           4.20582
           Z4           2.45440   1.96703
           X5           0.00450  -0.00861   0.55987
           Y5           0.00592  -0.01132   0.90409   3.45001
           Z5          -0.01132   0.02168   0.45977   1.94395   1.43313
           X6           0.00374  -0.00717  -0.04954  -0.10664   0.03450
           Y6           0.00492  -0.00942  -0.21929  -0.14420   0.07589
           Z6           0.01202  -0.02301  -0.09332  -0.08295   0.12348
                          X6        Y6        Z6
           X6           2.96489
           Y6           1.72273   1.40473
           Z6          -1.50703  -0.86381   1.07280
     Eigenvalues ---    0.13394   0.19890   0.21467   0.30284   0.92707
     Eigenvalues ---    1.07698   1.21759   1.86410   7.63850   9.26636
     Eigenvalues ---    9.62376  11.70558
 Quadratic step=1.374D+00 exceeds max=3.000D-01 adjusted using Lamda=-1.058D+01.
 Angle between NR and scaled steps=  56.06 degrees.
 Angle between quadratic step and forces=  15.40 degrees.
 Linear search not attempted -- first point.
 TrRot=  0.001604  0.010018  0.029047 -0.684839 -0.002383  0.691558
 Variable       Old X    -DE/DX   Delta X   Delta X   Delta X     New X
                                 (Linear)    (Quad)   (Total)
    X1       -4.42461   0.18182   0.00000   0.02618   0.01473  -4.40988
    Y1        2.03755  -2.59605   0.00000  -0.08569  -0.10524   1.93231
    Z1        0.00000   1.11230   0.00000   0.02716   0.04517   0.04517
    X2       -2.46682  -1.24382   0.00000  -0.06029  -0.06270  -2.52952
    Y2        0.54857   0.75967   0.00000   0.04387   0.03698   0.58555
    Z2        0.00000   1.84811   0.00000   0.05502   0.07853   0.07853
    X3       -4.67735  -0.73129   0.00000  -0.03332  -0.04506  -4.72241
    Y3        2.26769   0.50635   0.00000   0.03742   0.01408   2.28177
    Z3       -0.96102  -2.39464   0.00000  -0.13302  -0.11612  -1.07714
    X4       -4.22139   0.50986   0.00000   0.04031   0.02073  -4.20066
    Y4        2.88810   2.11872   0.00000   0.12043   0.10316   2.99126
    Z4        0.52504   1.30502   0.00000   0.05805   0.07485   0.59989
    X5       -2.69299  -0.45891   0.00000  -0.03131  -0.02555  -2.71854
    Y5       -0.33883  -1.80259   0.00000  -0.09672  -0.10595  -0.44478
    Z5       -0.55341  -1.08045   0.00000  -0.07623  -0.05152  -0.60493
    X6       -1.64286   1.74234   0.00000   0.10271   0.09786  -1.54500
    Y6        1.05092   1.01390   0.00000   0.05810   0.05696   1.10788
    Z6       -0.46220  -0.79034   0.00000  -0.05545  -0.03091  -0.49311
         Item               Value     Threshold  Converged?
 Maximum Force            2.596049     0.000450     NO 
 RMS     Force            1.411118     0.000300     NO 
 Maximum Displacement     0.116120     0.001800     NO 
 RMS     Displacement     0.068917     0.001200     NO 
 Predicted change in Energy=-1.343763D+00
 GradGradGradGradGradGradGradGradGradGradGradGradGradGradGradGradGradGrad


 Test job not archived.
 1\1\GINC-EAM\Force\RB3LYP\Gen\C1H4N1(1+)\DULIKAI\10-Jan-2014\0\\# forc
 e b3lyp/ChkBasis scf=(tight,maxcycle=10000) iop(9/40=20) nosymm geom=A
 llCheck Guess=Read\\[0] [0]\\1,1\N,-2.3414018,1.0782246,0.\C,-1.305384
 4,0.2902906,0.\H,-2.475146,1.2000094,-0.5085497\H,-2.2338625,1.5283161
 ,0.2778391\H,-1.4250684,-0.179301,-0.2928518\H,-0.8693637,0.5561227,-0
 .2445856\\Version=EM64L-G09RevA.01\HF=-92.3280245\RMSD=9.858e-10\RMSF=
 1.411e+00\Dipole=0.4134338,-0.0027402,-0.0461966\Quadrupole=5.160887,-
 1.2076441,-3.953243,-5.4854687,0.846504,-0.2992658\PG=C01 [X(C1H4N1)]\
 \@


 The arm of the moral universe is long, but it bends toward justice.
 -- Martin Luther King, Jr.
 Job cpu time:  0 days  0 hours  0 minutes  2.9 seconds.
 File lengths (MBytes):  RWF=      5 Int=      0 D2E=      0 Chk=      1 Scr=      1
 Normal termination of Gaussian 09 at Fri Jan 10 13:44:52 2014.
 Initial command:
 /opt//g09/l1.exe /tmp/Gau-31467.inp -scrdir=/tmp/
 Entering Link 1 = /opt//g09/l1.exe PID=     31499.
  
 Copyright (c) 1988,1990,1992,1993,1995,1998,2003,2009, Gaussian, Inc.
                  All Rights Reserved.
  
 This is part of the Gaussian(R) 09 program.  It is based on
 the Gaussian(R) 03 system (copyright 2003, Gaussian, Inc.),
 the Gaussian(R) 98 system (copyright 1998, Gaussian, Inc.),
 the Gaussian(R) 94 system (copyright 1995, Gaussian, Inc.),
 the Gaussian 92(TM) system (copyright 1992, Gaussian, Inc.),
 the Gaussian 90(TM) system (copyright 1990, Gaussian, Inc.),
 the Gaussian 88(TM) system (copyright 1988, Gaussian, Inc.),
 the Gaussian 86(TM) system (copyright 1986, Carnegie Mellon
 University), and the Gaussian 82(TM) system (copyright 1983,
 Carnegie Mellon University). Gaussian is a federally registered
 trademark of Gaussian, Inc.
  
 This software contains proprietary and confidential information,
 including trade secrets, belonging to Gaussian, Inc.
  
 This software is provided under written license and may be
 used, copied, transmitted, or stored only in accord with that
 written license.
  
 The following legend is applicable only to US Government
 contracts under FAR:
  
                    RESTRICTED RIGHTS LEGEND
  
 Use, reproduction and disclosure by the US Government is
 subject to restrictions as set forth in subparagraphs (a)
 and (c) of the Commercial Computer Software - Restricted
 Rights clause in FAR 52.227-19.
  
 Gaussian, Inc.
 340 Quinnipiac St., Bldg. 40, Wallingford CT 06492
  
  
 ---------------------------------------------------------------
 Warning -- This program may not be used in any manner that
 competes with the business of Gaussian, Inc. or will provide
 assistance to any competitor of Gaussian, Inc.  The licensee
 of this program is prohibited from giving any competitor of
 Gaussian, Inc. access to this program.  By using this program,
 the user acknowledges that Gaussian, Inc. is engaged in the
 business of creating and licensing software in the field of
 computational chemistry and represents and warrants to the
 licensee that it is not a competitor of Gaussian, Inc. and that
 it will not use this program in any manner prohibited above.
 ---------------------------------------------------------------
  

 Cite this work as:
 Gaussian 09, Revision A.01,
 M. J. Frisch, G. W. Trucks, H. B. Schlegel, G. E. Scuseria, 
 M. A. Robb, J. R. Cheeseman, G. Scalmani, V. Barone, B. Mennucci, 
 G. A. Petersson, H. Nakatsuji, M. Caricato, X. Li, H. P. Hratchian, 
 A. F. Izmaylov, J. Bloino, G. Zheng, J. L. Sonnenberg, M. Hada, 
 M. Ehara, K. Toyota, R. Fukuda, J. Hasegawa, M. Ishida, T. Nakajima, 
 Y. Honda, O. Kitao, H. Nakai, T. Vreven, J. A. Montgomery, Jr., 
 J. E. Peralta, F. Ogliaro, M. Bearpark, J. J. Heyd, E. Brothers, 
 K. N. Kudin, V. N. Staroverov, R. Kobayashi, J. Normand, 
 K. Raghavachari, A. Rendell, J. C. Burant, S. S. Iyengar, J. Tomasi, 
 M. Cossi, N. Rega, J. M. Millam, M. Klene, J. E. Knox, J. B. Cross, 
 V. Bakken, C. Adamo, J. Jaramillo, R. Gomperts, R. E. Stratmann, 
 O. Yazyev, A. J. Austin, R. Cammi, C. Pomelli, J. W. Ochterski, 
 R. L. Martin, K. Morokuma, V. G. Zakrzewski, G. A. Voth, 
 P. Salvador, J. J. Dannenberg, S. Dapprich, A. D. Daniels, 
 O. Farkas, J. B. Foresman, J. V. Ortiz, J. Cioslowski, 
 and D. J. Fox, Gaussian, Inc., Wallingford CT, 2009.
 
 ******************************************
 Gaussian 09:  EM64L-G09RevA.01  8-May-2009
                10-Jan-2014 
 ******************************************
 %chk=gaussian.chk
 %mem=1GB
 %nproc=2
 Will use up to    2 processors via shared memory.
 ----------------------------------------------------------------------
 # td(singlet, root=0, nstates=2) b3lyp/ChkBasis scf=(tight,maxcycle=10
 000) iop(9/40=20) nosymm geom=AllCheck Guess=Read
 ----------------------------------------------------------------------
 1/29=7,38=1/1;
 2/12=2,15=1,40=1/2;
 3/5=7,6=2,11=2,14=-4,16=1,25=1,30=1,67=1,74=-5,116=-2/1,2,8,3;
 4/5=1/1;
 5/5=2,7=10000,32=2,38=6/2;
 8/6=1,10=1,108=2/1;
 9/40=20,41=2,42=1,48=1/14;
 6/7=2,8=2,9=2,10=2/1;
 99/5=1,9=1/99;
 -------
 [0] [0]
 -------
 No Z-matrix found on checkpoint file.
 Cartesian coordinates read from the checkpoint file:
 gaussian.chk
 Charge =  1 Multiplicity = 1
  N                                                -2.341401800000      1.078224600000      0.000000000000
  C                                                -1.305384400000      0.290290600000      0.000000000000
  H                                                -2.475146000000      1.200009400000     -0.508549700000
  H                                                -2.233862500000      1.528316100000      0.277839100000
  H                                                -1.425068400000     -0.179301000000     -0.292851800000
  H                                                -0.869363700000      0.556122700000     -0.244585600000
 Recover connectivity data from disk.
                          Input orientation:                          
 ---------------------------------------------------------------------
 Center     Atomic      Atomic             Coordinates (Angstroms)
 Number     Number       Type             X           Y           Z
 ---------------------------------------------------------------------
      1          7           0       -2.341402    1.078225    0.000000
      2          6           0       -1.305384    0.290291    0.000000
      3          1           0       -2.475146    1.200009   -0.508550
      4          1           0       -2.233863    1.528316    0.277839
      5          1           0       -1.425068   -0.179301   -0.292852
      6          1           0       -0.869364    0.556123   -0.244586
 ---------------------------------------------------------------------
                    Distance matrix (angstroms):
                    1          2          3          4          5
     1  N    0.000000
     2  C    1.301604   0.000000
     3  H    0.539761   1.566701   0.000000
     4  H    0.539761   1.572251   0.885669   0.000000
     5  H    1.583288   0.566218   1.746907   1.973776   0.000000
     6  H    1.580920   0.566218   1.750087   1.754977   0.923031
                    6
     6  H    0.000000
 Symmetry turned off by external request.
 Stoichiometry    CH4N(1+)
 Framework group  C1[X(CH4N)]
 Deg. of freedom    12
 Full point group                 C1      NOp   1
 Rotational constants (GHZ):    480.2101307     35.6598387     34.9388750
 Basis read from chk: gaussian.chk (6D, 7F)
 Integral buffers will be    131072 words long.
 Raffenetti 2 integral format.
 Two-electron integral symmetry is turned off.
    50 basis functions,    84 primitive gaussians,    50 cartesian basis functions
     8 alpha electrons        8 beta electrons
       nuclear repulsion energy        53.0903335376 Hartrees.
 NAtoms=    6 NActive=    6 NUniq=    6 SFac= 7.50D-01 NAtFMM=   80 NAOKFM=F Big=F
 One-electron integrals computed using PRISM.
 NBasis=    50 RedAO= T  NBF=    50
 NBsUse=    50 1.00D-06 NBFU=    50
 Initial guess read from the checkpoint file:  gaussian.chk
 B after Tr=     0.000000    0.000000    0.000000
         Rot=    1.000000    0.000000    0.000000    0.000000 Ang=   0.00 deg.
 Requested convergence on RMS density matrix=1.00D-08 within**** cycles.
 Requested convergence on MAX density matrix=1.00D-06.
 Requested convergence on             energy=1.00D-06.
 No special actions if energy rises.
 Keep R1 ints in memory in canonical form, NReq=101789175.
 SCF Done:  E(RB3LYP) =  -92.3280245384     A.U. after    1 cycles
             Convg  =    0.2441D-08             -V/T =  1.9157
 ExpMin= 1.61D-01 ExpMax= 4.17D+03 ExpMxC= 6.27D+02 IAcc=1 IRadAn=         1 AccDes= 0.00D+00
 HarFok:  IExCor=  205 AccDes= 0.00D+00 IRadAn=         1 IDoV=-2
 ScaDFX=  1.000000  1.000000  1.000000  1.000000
 Range of M.O.s used for correlation:     3    50
 NBasis=    50 NAE=     8 NBE=     8 NFC=     2 NFV=     0
 NROrb=     48 NOA=     6 NOB=     6 NVA=    42 NVB=    42

 **** Warning!!: The largest alpha MO coefficient is  0.10238800D+02

     8 initial guesses have been made.
 Convergence on wavefunction:    0.001000000000000
 Iteration     1 Dimension     8 NMult     8
 CISAX will form     8 AO SS matrices at one time.
 Iteration     2 Dimension    12 NMult    12
 Iteration     3 Dimension    16 NMult    16
 Iteration     4 Dimension    20 NMult    20
 Iteration     5 Dimension    22 NMult    22
 ***********************************************************************
 Excited states from <AA,BB:AA,BB> singles matrix:
 ***********************************************************************
 
 Ground to excited state transition electric dipole moments (Au):
       state          X           Y           Z        Dip. S.      Osc.
         1         0.6925     -0.3439      0.1008      0.6080      0.0630
         2         0.0776     -0.2117     -0.0426      0.0527      0.0114
 Ground to excited state transition velocity dipole moments (Au):
       state          X           Y           Z        Dip. S.      Osc.
         1        -0.0977      0.0502     -0.0156      0.0123      0.0528
         2        -0.0158      0.0584      0.0034      0.0037      0.0075
 Ground to excited state transition magnetic dipole moments (Au):
       state          X           Y           Z
         1        -0.3706      0.6746      0.1999
         2         1.2908      0.6081      0.2351
 <0|del|b> * <b|rxdel|0> + <0|del|b> * <b|delr+rdel|0>
 Rotatory Strengths (R) in cgs (10**-40 erg-esu-cm/Gauss)
       state          XX          YY          ZZ    R(velocity)
         1        83.9737     63.6441    157.1314    101.5831
 Total R(velocity) tensor for State=          1
                 1             2             3 
      1   0.839737D+02  0.183091D+03  0.634911D+02
      2   0.370501D+02  0.636441D+02 -0.271038D+02
      3  -0.697748D+01  0.352843D+02  0.157131D+03
         2        42.9092    -22.5384     14.4458     11.6055
 Total R(velocity) tensor for State=          2
                 1             2             3 
      1   0.429092D+02  0.111172D+02  0.806163D+01
      2  -0.889365D+02 -0.225384D+02 -0.253673D+02
      3  -0.818780D+01 -0.305147D+01  0.144458D+02
 1/2[<0|r|b>*<b|rxdel|0> + (<0|rxdel|b>*<b|r|0>)*]
 Rotatory Strengths (R) in cgs (10**-40 erg-esu-cm/Gauss)
       state          XX          YY          ZZ     R(length)     R(au)
         1       181.5187    164.0392    -14.2413    110.4389      0.2343
         2       -70.8723     91.0344      7.0814      9.0812      0.0193
  1/2[<0|del|b>*<b|r|0> + (<0|r|b>*<b|del|0>)*] (Au)
       state          X           Y           Z        Dip. S.   Osc.(frdel)
         1        -0.0677     -0.0173     -0.0016      0.0865      0.0577
         2        -0.0012     -0.0124     -0.0001      0.0137      0.0092
 Ground to excited state transition densities written to RWF  633

 Excitation energies and oscillator strengths:
 
 Excited state symmetry could not be determined.
 Excited State   1:      Singlet-?Sym    4.2296 eV  293.14 nm  f=0.0630  <S**2>=0.000
       3 ->  9         0.01302
       3 -> 10        -0.00707
       3 -> 11         0.00696
       3 -> 12        -0.00235
       3 -> 13         0.00121
       3 -> 14        -0.00066
       3 -> 15        -0.00145
       3 -> 16         0.00344
       3 -> 17         0.00009
       3 -> 18         0.00192
       3 -> 19         0.00085
       3 -> 20         0.00187
       3 -> 21        -0.00170
       3 -> 22         0.00304
       3 -> 23         0.00125
       3 -> 24         0.00133
       3 -> 25        -0.00237
       3 -> 26        -0.00252
       3 -> 27        -0.00021
       3 -> 28        -0.00052
       3 -> 29         0.00106
       3 -> 30         0.00045
       3 -> 31        -0.00028
       3 -> 32         0.00116
       3 -> 33        -0.00012
       3 -> 34        -0.00069
       3 -> 35         0.00022
       3 -> 36        -0.00002
       3 -> 37         0.00011
       3 -> 38         0.00021
       3 -> 39         0.00030
       3 -> 40        -0.00060
       3 -> 41        -0.00005
       3 -> 42         0.00005
       3 -> 43        -0.00082
       3 -> 44        -0.00049
       3 -> 45         0.00025
       3 -> 46         0.00004
       3 -> 47         0.00008
       3 -> 48        -0.00002
       3 -> 49        -0.00018
       3 -> 50        -0.00003
       4 ->  9         0.01066
       4 -> 10         0.00737
       4 -> 11         0.00829
       4 -> 12        -0.00401
       4 -> 13         0.00268
       4 -> 14         0.00265
       4 -> 15        -0.00274
       4 -> 16         0.00307
       4 -> 17        -0.00005
       4 -> 18         0.00038
       4 -> 19        -0.00023
       4 -> 20         0.00114
       4 -> 21        -0.00431
       4 -> 22        -0.00106
       4 -> 23        -0.00132
       4 -> 24        -0.00225
       4 -> 25         0.00112
       4 -> 26        -0.00215
       4 -> 27        -0.00141
       4 -> 28         0.00057
       4 -> 29         0.00114
       4 -> 30        -0.00048
       4 -> 31        -0.00076
       4 -> 32         0.00100
       4 -> 33         0.00032
       4 -> 34         0.00002
       4 -> 35         0.00012
       4 -> 36         0.00096
       4 -> 37        -0.00004
       4 -> 38         0.00022
       4 -> 39         0.00008
       4 -> 40        -0.00011
       4 -> 41         0.00018
       4 -> 42        -0.00005
       4 -> 43         0.00056
       4 -> 44         0.00020
       4 -> 45         0.00058
       4 -> 46        -0.00033
       4 -> 47        -0.00002
       4 -> 48         0.00009
       4 -> 49         0.00011
       4 -> 50         0.00021
       5 ->  9         0.04030
       5 -> 10         0.00007
       5 -> 11         0.00660
       5 -> 12         0.00597
       5 -> 13         0.00702
       5 -> 14        -0.00383
       5 -> 15        -0.00132
       5 -> 16         0.00130
       5 -> 17        -0.00283
       5 -> 18         0.00186
       5 -> 19         0.00554
       5 -> 20        -0.00074
       5 -> 21        -0.00425
       5 -> 22         0.00069
       5 -> 23        -0.00020
       5 -> 24         0.00102
       5 -> 25        -0.00387
       5 -> 26         0.00517
       5 -> 27        -0.00413
       5 -> 28        -0.00359
       5 -> 29         0.00044
       5 -> 30        -0.00191
       5 -> 31         0.00031
       5 -> 32         0.00004
       5 -> 33        -0.00022
       5 -> 34         0.00039
       5 -> 35         0.00135
       5 -> 36        -0.00019
       5 -> 37         0.00165
       5 -> 38        -0.00007
       5 -> 39        -0.00002
       5 -> 40         0.00003
       5 -> 41         0.00039
       5 -> 42        -0.00109
       5 -> 43         0.00009
       5 -> 44         0.00012
       5 -> 45         0.00003
       5 -> 46        -0.00012
       5 -> 47        -0.00072
       5 -> 48         0.00006
       5 -> 49         0.00010
       5 -> 50         0.00012
       6 ->  9        -0.10209
       6 -> 10         0.00951
       6 -> 11        -0.01607
       6 -> 12         0.00459
       6 -> 13        -0.01366
       6 -> 14        -0.01223
       6 -> 15         0.00827
       6 -> 16        -0.01094
       6 -> 17         0.00006
       6 -> 18        -0.00521
       6 -> 19        -0.00370
       6 -> 20        -0.00571
       6 -> 21         0.00308
       6 -> 22        -0.00336
       6 -> 23         0.00214
       6 -> 24         0.00086
       6 -> 25        -0.00185
       6 -> 26         0.00023
       6 -> 27        -0.00234
       6 -> 28         0.00584
       6 -> 29        -0.00075
       6 -> 30        -0.00107
       6 -> 31         0.00140
       6 -> 32         0.00118
       6 -> 33         0.00052
       6 -> 34         0.00245
       6 -> 35        -0.00035
       6 -> 36        -0.00051
       6 -> 37        -0.00004
       6 -> 38         0.00069
       6 -> 39         0.00054
       6 -> 40         0.00007
       6 -> 41        -0.00024
       6 -> 42        -0.00075
       6 -> 43         0.00020
       6 -> 44         0.00005
       6 -> 45        -0.00024
       6 -> 46         0.00007
       6 -> 47         0.00005
       6 -> 48         0.00047
       6 -> 49        -0.00011
       6 -> 50         0.00021
       7 ->  9        -0.02980
       7 -> 10        -0.01210
       7 -> 11         0.02185
       7 -> 12        -0.01583
       7 -> 13         0.03217
       7 -> 14         0.00910
       7 -> 15        -0.00279
       7 -> 16         0.01776
       7 -> 17         0.00615
       7 -> 18         0.00016
       7 -> 19        -0.00115
       7 -> 20         0.01339
       7 -> 21        -0.00578
       7 -> 22        -0.00012
       7 -> 23         0.00020
       7 -> 24        -0.00040
       7 -> 25        -0.00142
       7 -> 26        -0.00186
       7 -> 27        -0.00141
       7 -> 28         0.00352
       7 -> 29         0.00099
       7 -> 30         0.00030
       7 -> 31        -0.00331
       7 -> 32         0.00065
       7 -> 33        -0.00003
       7 -> 34         0.00012
       7 -> 35         0.00076
       7 -> 36        -0.00090
       7 -> 37        -0.00120
       7 -> 38         0.00005
       7 -> 39         0.00130
       7 -> 40         0.00007
       7 -> 41        -0.00004
       7 -> 42        -0.00007
       7 -> 43         0.00025
       7 -> 44        -0.00013
       7 -> 45        -0.00026
       7 -> 46         0.00004
       7 -> 47         0.00016
       7 -> 48         0.00013
       7 -> 49         0.00016
       7 -> 50         0.00008
       8 ->  9         0.71833
       8 -> 10        -0.00665
       8 -> 11         0.01336
       8 -> 12         0.00431
       8 -> 13         0.01406
       8 -> 14         0.01060
       8 -> 15        -0.01516
       8 -> 16         0.00563
       8 -> 17         0.00130
       8 -> 18        -0.01083
       8 -> 19         0.01165
       8 -> 20        -0.00189
       8 -> 21        -0.00157
       8 -> 22         0.00869
       8 -> 23        -0.00770
       8 -> 24        -0.00229
       8 -> 25         0.00473
       8 -> 26         0.00553
       8 -> 27         0.00043
       8 -> 28        -0.00410
       8 -> 29        -0.00137
       8 -> 30        -0.00091
       8 -> 31        -0.00266
       8 -> 32         0.00227
       8 -> 33        -0.00075
       8 -> 34        -0.00136
       8 -> 35        -0.00102
       8 -> 36         0.00015
       8 -> 37         0.00167
       8 -> 38         0.00046
       8 -> 39        -0.00040
       8 -> 40        -0.00012
       8 -> 41         0.00021
       8 -> 42         0.00028
       8 -> 43         0.00006
       8 -> 44        -0.00011
       8 -> 45        -0.00004
       8 -> 46         0.00014
       8 -> 47        -0.00017
       8 -> 48        -0.00025
       8 -> 49         0.00021
       8 -> 50        -0.00002
       3 <-  9         0.00647
       3 <- 10        -0.00548
       3 <- 11         0.00544
       3 <- 12        -0.00190
       3 <- 13         0.00090
       3 <- 14        -0.00036
       3 <- 15        -0.00053
       3 <- 16         0.00279
       3 <- 17         0.00058
       3 <- 18         0.00131
       3 <- 19         0.00072
       3 <- 20         0.00185
       3 <- 21        -0.00111
       3 <- 22         0.00238
       3 <- 23         0.00117
       3 <- 24         0.00109
       3 <- 25        -0.00186
       3 <- 26        -0.00243
       3 <- 27        -0.00010
       3 <- 28        -0.00077
       3 <- 29         0.00093
       3 <- 30         0.00045
       3 <- 31        -0.00002
       3 <- 32         0.00100
       3 <- 33        -0.00020
       3 <- 34        -0.00052
       3 <- 35         0.00024
       3 <- 36         0.00000
       3 <- 37         0.00001
       3 <- 38         0.00020
       3 <- 39         0.00032
       3 <- 40        -0.00063
       3 <- 41        -0.00004
       3 <- 42         0.00001
       3 <- 43        -0.00073
       3 <- 44        -0.00045
       3 <- 45         0.00020
       3 <- 46         0.00005
       3 <- 47         0.00006
       3 <- 48         0.00000
       3 <- 49        -0.00018
       3 <- 50        -0.00003
       4 <-  9         0.00609
       4 <- 10         0.00548
       4 <- 11         0.00605
       4 <- 12        -0.00289
       4 <- 13         0.00215
       4 <- 14         0.00149
       4 <- 15        -0.00303
       4 <- 16         0.00249
       4 <- 17        -0.00020
       4 <- 18        -0.00026
       4 <- 19        -0.00098
       4 <- 20         0.00092
       4 <- 21        -0.00382
       4 <- 22        -0.00126
       4 <- 23        -0.00108
       4 <- 24        -0.00188
       4 <- 25         0.00021
       4 <- 26        -0.00159
       4 <- 27        -0.00146
       4 <- 28         0.00035
       4 <- 29         0.00103
       4 <- 30        -0.00056
       4 <- 31        -0.00053
       4 <- 32         0.00089
       4 <- 33         0.00046
       4 <- 34        -0.00007
       4 <- 35         0.00004
       4 <- 36         0.00076
       4 <- 37        -0.00012
       4 <- 38         0.00014
       4 <- 39         0.00007
       4 <- 40        -0.00016
       4 <- 41         0.00025
       4 <- 42        -0.00002
       4 <- 43         0.00055
       4 <- 44         0.00018
       4 <- 45         0.00055
       4 <- 46        -0.00034
       4 <- 47         0.00000
       4 <- 48         0.00005
       4 <- 49         0.00009
       4 <- 50         0.00020
       5 <-  9         0.01837
       5 <- 10        -0.00003
       5 <- 11         0.00507
       5 <- 12         0.00420
       5 <- 13         0.00518
       5 <- 14        -0.00229
       5 <- 15        -0.00321
       5 <- 16         0.00221
       5 <- 17        -0.00266
       5 <- 18        -0.00107
       5 <- 19         0.00392
       5 <- 20        -0.00052
       5 <- 21        -0.00294
       5 <- 22         0.00086
       5 <- 23        -0.00092
       5 <- 24        -0.00037
       5 <- 25        -0.00326
       5 <- 26         0.00423
       5 <- 27        -0.00304
       5 <- 28        -0.00342
       5 <- 29         0.00066
       5 <- 30        -0.00183
       5 <- 31         0.00008
       5 <- 32         0.00008
       5 <- 33        -0.00038
       5 <- 34         0.00012
       5 <- 35         0.00092
       5 <- 36        -0.00028
       5 <- 37         0.00153
       5 <- 38        -0.00001
       5 <- 39         0.00000
       5 <- 40        -0.00015
       5 <- 41         0.00050
       5 <- 42        -0.00082
       5 <- 43         0.00016
       5 <- 44         0.00008
       5 <- 45        -0.00003
       5 <- 46        -0.00027
       5 <- 47        -0.00069
       5 <- 48         0.00006
       5 <- 49         0.00006
       5 <- 50         0.00010
       6 <-  9        -0.02186
       6 <- 10         0.00737
       6 <- 11        -0.01294
       6 <- 12         0.00217
       6 <- 13        -0.01200
       6 <- 14        -0.00946
       6 <- 15         0.00560
       6 <- 16        -0.00829
       6 <- 17        -0.00418
       6 <- 18        -0.00246
       6 <- 19        -0.00521
       6 <- 20        -0.00524
       6 <- 21         0.00279
       6 <- 22        -0.00253
       6 <- 23         0.00226
       6 <- 24        -0.00031
       6 <- 25        -0.00156
       6 <- 26        -0.00035
       6 <- 27        -0.00174
       6 <- 28         0.00631
       6 <- 29        -0.00058
       6 <- 30        -0.00094
       6 <- 31         0.00133
       6 <- 32         0.00097
       6 <- 33         0.00033
       6 <- 34         0.00207
       6 <- 35        -0.00041
       6 <- 36        -0.00053
       6 <- 37        -0.00019
       6 <- 38         0.00043
       6 <- 39         0.00046
       6 <- 40         0.00033
       6 <- 41        -0.00033
       6 <- 42        -0.00052
       6 <- 43         0.00006
       6 <- 44         0.00009
       6 <- 45        -0.00003
       6 <- 46        -0.00006
       6 <- 47         0.00010
       6 <- 48         0.00046
       6 <- 49        -0.00010
       6 <- 50         0.00020
       7 <-  9        -0.00399
       7 <- 10        -0.00737
       7 <- 11         0.01395
       7 <- 12        -0.01106
       7 <- 13         0.02129
       7 <- 14         0.00649
       7 <- 15        -0.00199
       7 <- 16         0.01330
       7 <- 17         0.00314
       7 <- 18        -0.00018
       7 <- 19        -0.00198
       7 <- 20         0.01039
       7 <- 21        -0.00424
       7 <- 22        -0.00008
       7 <- 23         0.00020
       7 <- 24        -0.00096
       7 <- 25        -0.00100
       7 <- 26        -0.00163
       7 <- 27        -0.00085
       7 <- 28         0.00239
       7 <- 29         0.00094
       7 <- 30         0.00027
       7 <- 31        -0.00273
       7 <- 32         0.00061
       7 <- 33        -0.00017
       7 <- 34         0.00012
       7 <- 35         0.00061
       7 <- 36        -0.00089
       7 <- 37        -0.00126
       7 <- 38        -0.00004
       7 <- 39         0.00116
       7 <- 40        -0.00006
       7 <- 41         0.00000
       7 <- 42        -0.00002
       7 <- 43         0.00025
       7 <- 44        -0.00011
       7 <- 45        -0.00023
       7 <- 46        -0.00003
       7 <- 47         0.00015
       7 <- 48         0.00014
       7 <- 49         0.00013
       7 <- 50         0.00008
       8 <-  9        -0.17659
       8 <- 10        -0.00092
       8 <- 11         0.00159
       8 <- 12         0.00386
       8 <- 13         0.00410
       8 <- 14         0.00312
       8 <- 15        -0.00598
       8 <- 16         0.00204
       8 <- 17         0.00748
       8 <- 18        -0.01225
       8 <- 19         0.00432
       8 <- 20        -0.00139
       8 <- 21         0.00149
       8 <- 22         0.00495
       8 <- 23        -0.00509
       8 <- 24        -0.00286
       8 <- 25         0.00389
       8 <- 26         0.00307
       8 <- 27         0.00063
       8 <- 28        -0.00163
       8 <- 29        -0.00133
       8 <- 30        -0.00080
       8 <- 31        -0.00131
       8 <- 32         0.00205
       8 <- 33        -0.00064
       8 <- 34        -0.00084
       8 <- 35        -0.00117
       8 <- 36        -0.00016
       8 <- 37         0.00089
       8 <- 38         0.00036
       8 <- 39        -0.00028
       8 <- 40        -0.00049
       8 <- 41         0.00020
       8 <- 42         0.00014
       8 <- 43         0.00024
       8 <- 44        -0.00017
       8 <- 45        -0.00013
       8 <- 46         0.00009
       8 <- 47         0.00000
       8 <- 48        -0.00017
       8 <- 49         0.00017
       8 <- 50        -0.00004
 This state for optimization and/or second-order correction.
 Copying the excited state density for this state as the 1-particle RhoCI density.
 
 Excited state symmetry could not be determined.
 Excited State   2:      Singlet-?Sym    8.8181 eV  140.60 nm  f=0.0114  <S**2>=0.000
       3 ->  9         0.01285
       3 -> 10         0.00030
       3 -> 11        -0.00083
       3 -> 12         0.00106
       3 -> 13        -0.00156
       3 -> 14         0.00042
       3 -> 15         0.00085
       3 -> 16        -0.00039
       3 -> 17        -0.00233
       3 -> 18         0.00064
       3 -> 19        -0.00102
       3 -> 20        -0.00124
       3 -> 21         0.00025
       3 -> 22         0.00009
       3 -> 23         0.00110
       3 -> 24        -0.00002
       3 -> 25         0.00111
       3 -> 26         0.00058
       3 -> 27         0.00009
       3 -> 28         0.00082
       3 -> 29        -0.00073
       3 -> 30         0.00021
       3 -> 31         0.00001
       3 -> 32         0.00023
       3 -> 33        -0.00006
       3 -> 34         0.00015
       3 -> 35        -0.00010
       3 -> 36        -0.00017
       3 -> 37        -0.00043
       3 -> 38         0.00007
       3 -> 39         0.00025
       3 -> 40         0.00019
       3 -> 41        -0.00012
       3 -> 42         0.00020
       3 -> 43         0.00028
       3 -> 44        -0.00010
       3 -> 45        -0.00006
       3 -> 46        -0.00009
       3 -> 47         0.00031
       3 -> 48         0.00010
       3 -> 49         0.00005
       3 -> 50        -0.00002
       4 ->  9         0.00348
       4 -> 10         0.00155
       4 -> 11        -0.00079
       4 -> 12         0.00155
       4 -> 13        -0.00099
       4 -> 14         0.00006
       4 -> 15         0.00184
       4 -> 16        -0.00122
       4 -> 17         0.00008
       4 -> 18         0.00125
       4 -> 19        -0.00026
       4 -> 20        -0.00107
       4 -> 21        -0.00086
       4 -> 22        -0.00010
       4 -> 23         0.00078
       4 -> 24        -0.00086
       4 -> 25         0.00008
       4 -> 26         0.00108
       4 -> 27         0.00137
       4 -> 28        -0.00029
       4 -> 29         0.00176
       4 -> 30         0.00147
       4 -> 31        -0.00010
       4 -> 32         0.00006
       4 -> 33         0.00029
       4 -> 34         0.00013
       4 -> 35         0.00066
       4 -> 36        -0.00106
       4 -> 37        -0.00017
       4 -> 38         0.00012
       4 -> 39         0.00063
       4 -> 40         0.00025
       4 -> 41        -0.00013
       4 -> 42        -0.00072
       4 -> 43         0.00040
       4 -> 44        -0.00019
       4 -> 45         0.00000
       4 -> 46         0.00064
       4 -> 47        -0.00017
       4 -> 48         0.00010
       4 -> 49         0.00002
       4 -> 50        -0.00005
       5 ->  9         0.02040
       5 -> 10         0.00007
       5 -> 11         0.00136
       5 -> 12        -0.00119
       5 -> 13        -0.00012
       5 -> 14         0.00257
       5 -> 15         0.00049
       5 -> 16         0.00328
       5 -> 17        -0.00077
       5 -> 18         0.00035
       5 -> 19        -0.00182
       5 -> 20        -0.00103
       5 -> 21         0.00115
       5 -> 22         0.00072
       5 -> 23         0.00001
       5 -> 24        -0.00021
       5 -> 25         0.00342
       5 -> 26         0.00059
       5 -> 27        -0.00234
       5 -> 28         0.00023
       5 -> 29         0.00006
       5 -> 30        -0.00095
       5 -> 31         0.00023
       5 -> 32        -0.00024
       5 -> 33        -0.00155
       5 -> 34         0.00019
       5 -> 35        -0.00076
       5 -> 36         0.00058
       5 -> 37        -0.00037
       5 -> 38         0.00056
       5 -> 39         0.00010
       5 -> 40         0.00036
       5 -> 41         0.00035
       5 -> 42         0.00008
       5 -> 43         0.00010
       5 -> 44         0.00024
       5 -> 45         0.00006
       5 -> 46        -0.00017
       5 -> 47         0.00018
       5 -> 48         0.00006
       5 -> 49         0.00008
       5 -> 50        -0.00002
       6 ->  9        -0.07117
       6 -> 10         0.00347
       6 -> 11        -0.00623
       6 -> 12         0.00013
       6 -> 13        -0.00712
       6 -> 14        -0.00365
       6 -> 15        -0.00199
       6 -> 16        -0.00105
       6 -> 17         0.00140
       6 -> 18        -0.00109
       6 -> 19         0.00234
       6 -> 20         0.00096
       6 -> 21         0.00223
       6 -> 22        -0.00064
       6 -> 23        -0.00166
       6 -> 24         0.00068
       6 -> 25         0.00030
       6 -> 26        -0.00341
       6 -> 27        -0.00176
       6 -> 28        -0.00015
       6 -> 29         0.00107
       6 -> 30        -0.00100
       6 -> 31        -0.00040
       6 -> 32         0.00062
       6 -> 33        -0.00184
       6 -> 34        -0.00144
       6 -> 35         0.00083
       6 -> 36         0.00097
       6 -> 37        -0.00006
       6 -> 38        -0.00048
       6 -> 39        -0.00096
       6 -> 40         0.00016
       6 -> 41         0.00068
       6 -> 42         0.00020
       6 -> 43         0.00012
       6 -> 44        -0.00061
       6 -> 45         0.00002
       6 -> 46        -0.00019
       6 -> 47         0.00000
       6 -> 48         0.00001
       6 -> 49        -0.00004
       6 -> 50        -0.00011
       7 ->  9         0.70238
       7 -> 10        -0.00023
       7 -> 11         0.00191
       7 -> 12        -0.00215
       7 -> 13         0.00077
       7 -> 14         0.00494
       7 -> 15        -0.00037
       7 -> 16         0.00215
       7 -> 17        -0.01268
       7 -> 18         0.00743
       7 -> 19        -0.00363
       7 -> 20         0.00238
       7 -> 21         0.00093
       7 -> 22        -0.00344
       7 -> 23         0.00522
       7 -> 24        -0.00094
       7 -> 25         0.00040
       7 -> 26        -0.00161
       7 -> 27        -0.00157
       7 -> 28         0.00002
       7 -> 29        -0.00209
       7 -> 30        -0.00096
       7 -> 31        -0.00304
       7 -> 32        -0.00156
       7 -> 33        -0.00138
       7 -> 34         0.00151
       7 -> 35        -0.00141
       7 -> 36         0.00110
       7 -> 37        -0.00019
       7 -> 38        -0.00239
       7 -> 39        -0.00085
       7 -> 40         0.00099
       7 -> 41         0.00023
       7 -> 42         0.00087
       7 -> 43        -0.00042
       7 -> 44         0.00006
       7 -> 45         0.00043
       7 -> 46        -0.00025
       7 -> 47        -0.00015
       7 -> 48         0.00009
       7 -> 49         0.00007
       7 -> 50        -0.00009
       8 ->  9         0.01823
       8 -> 10        -0.00925
       8 -> 11         0.01490
       8 -> 12        -0.00568
       8 -> 13         0.01368
       8 -> 14         0.00257
       8 -> 15        -0.00710
       8 -> 16         0.00345
       8 -> 17         0.00230
       8 -> 18         0.00211
       8 -> 19         0.00616
       8 -> 20         0.00024
       8 -> 21        -0.00155
       8 -> 22         0.00174
       8 -> 23        -0.00138
       8 -> 24        -0.00047
       8 -> 25         0.00047
       8 -> 26        -0.00131
       8 -> 27         0.00106
       8 -> 28         0.00373
       8 -> 29         0.00005
       8 -> 30         0.00041
       8 -> 31        -0.00293
       8 -> 32        -0.00084
       8 -> 33         0.00052
       8 -> 34         0.00016
       8 -> 35         0.00012
       8 -> 36        -0.00047
       8 -> 37         0.00027
       8 -> 38         0.00090
       8 -> 39         0.00097
       8 -> 40         0.00069
       8 -> 41        -0.00032
       8 -> 42         0.00001
       8 -> 43         0.00005
       8 -> 44        -0.00047
       8 -> 45        -0.00012
       8 -> 46        -0.00011
       8 -> 47         0.00001
       8 -> 48        -0.00005
       8 -> 49         0.00012
       8 -> 50         0.00003
       3 <-  9         0.00176
       3 <- 10         0.00023
       3 <- 11        -0.00072
       3 <- 12         0.00106
       3 <- 13        -0.00114
       3 <- 14         0.00001
       3 <- 15         0.00107
       3 <- 16        -0.00060
       3 <- 17        -0.00051
       3 <- 18         0.00017
       3 <- 19        -0.00059
       3 <- 20        -0.00093
       3 <- 21         0.00032
       3 <- 22         0.00004
       3 <- 23         0.00082
       3 <- 24         0.00001
       3 <- 25         0.00087
       3 <- 26         0.00048
       3 <- 27         0.00007
       3 <- 28         0.00065
       3 <- 29        -0.00046
       3 <- 30         0.00010
       3 <- 31         0.00049
       3 <- 32         0.00018
       3 <- 33        -0.00006
       3 <- 34         0.00011
       3 <- 35        -0.00002
       3 <- 36        -0.00013
       3 <- 37        -0.00035
       3 <- 38         0.00010
       3 <- 39         0.00023
       3 <- 40         0.00005
       3 <- 41        -0.00011
       3 <- 42         0.00012
       3 <- 43         0.00023
       3 <- 44        -0.00003
       3 <- 45        -0.00010
       3 <- 46        -0.00006
       3 <- 47         0.00029
       3 <- 48         0.00010
       3 <- 49         0.00006
       3 <- 50        -0.00002
       4 <-  9         0.00358
       4 <- 10         0.00134
       4 <- 11        -0.00098
       4 <- 12         0.00039
       4 <- 13        -0.00159
       4 <- 14         0.00048
       4 <- 15         0.00031
       4 <- 16        -0.00036
       4 <- 17        -0.00131
       4 <- 18        -0.00067
       4 <- 19        -0.00095
       4 <- 20        -0.00096
       4 <- 21        -0.00032
       4 <- 22         0.00001
       4 <- 23         0.00029
       4 <- 24        -0.00124
       4 <- 25         0.00038
       4 <- 26         0.00054
       4 <- 27         0.00173
       4 <- 28        -0.00022
       4 <- 29         0.00135
       4 <- 30         0.00112
       4 <- 31         0.00017
       4 <- 32         0.00009
       4 <- 33         0.00011
       4 <- 34        -0.00004
       4 <- 35         0.00042
       4 <- 36        -0.00088
       4 <- 37        -0.00020
       4 <- 38         0.00012
       4 <- 39         0.00050
       4 <- 40         0.00012
       4 <- 41         0.00001
       4 <- 42        -0.00049
       4 <- 43         0.00037
       4 <- 44        -0.00013
       4 <- 45         0.00003
       4 <- 46         0.00039
       4 <- 47        -0.00013
       4 <- 48         0.00011
       4 <- 49        -0.00001
       4 <- 50        -0.00008
       5 <-  9         0.00014
       5 <- 10        -0.00029
       5 <- 11         0.00152
       5 <- 12        -0.00090
       5 <- 13         0.00166
       5 <- 14         0.00171
       5 <- 15         0.00089
       5 <- 16         0.00247
       5 <- 17         0.00095
       5 <- 18         0.00042
       5 <- 19        -0.00083
       5 <- 20         0.00015
       5 <- 21         0.00002
       5 <- 22         0.00028
       5 <- 23         0.00017
       5 <- 24         0.00035
       5 <- 25         0.00244
       5 <- 26         0.00074
       5 <- 27        -0.00213
       5 <- 28         0.00034
       5 <- 29         0.00029
       5 <- 30        -0.00054
       5 <- 31         0.00034
       5 <- 32        -0.00009
       5 <- 33        -0.00122
       5 <- 34         0.00020
       5 <- 35        -0.00045
       5 <- 36         0.00053
       5 <- 37        -0.00041
       5 <- 38         0.00043
       5 <- 39         0.00011
       5 <- 40         0.00026
       5 <- 41         0.00034
       5 <- 42         0.00001
       5 <- 43         0.00004
       5 <- 44         0.00030
       5 <- 45         0.00003
       5 <- 46        -0.00006
       5 <- 47         0.00014
       5 <- 48         0.00007
       5 <- 49         0.00011
       5 <- 50        -0.00002
       6 <-  9        -0.00292
       6 <- 10         0.00179
       6 <- 11        -0.00324
       6 <- 12         0.00106
       6 <- 13        -0.00489
       6 <- 14        -0.00249
       6 <- 15        -0.00060
       6 <- 16        -0.00237
       6 <- 17         0.00031
       6 <- 18         0.00114
       6 <- 19         0.00238
       6 <- 20        -0.00065
       6 <- 21         0.00143
       6 <- 22        -0.00059
       6 <- 23        -0.00105
       6 <- 24         0.00135
       6 <- 25        -0.00015
       6 <- 26        -0.00222
       6 <- 27        -0.00165
       6 <- 28        -0.00060
       6 <- 29         0.00048
       6 <- 30        -0.00075
       6 <- 31        -0.00067
       6 <- 32         0.00018
       6 <- 33        -0.00125
       6 <- 34        -0.00102
       6 <- 35         0.00063
       6 <- 36         0.00091
       6 <- 37         0.00020
       6 <- 38        -0.00034
       6 <- 39        -0.00087
       6 <- 40         0.00034
       6 <- 41         0.00051
       6 <- 42         0.00010
       6 <- 43         0.00014
       6 <- 44        -0.00066
       6 <- 45         0.00006
       6 <- 46        -0.00008
       6 <- 47        -0.00005
       6 <- 48        -0.00001
       6 <- 49        -0.00004
       6 <- 50        -0.00009
       7 <-  9        -0.01720
       7 <- 10         0.00001
       7 <- 11        -0.00021
       7 <- 12         0.00124
       7 <- 13         0.00037
       7 <- 14         0.00086
       7 <- 15         0.00099
       7 <- 16         0.00000
       7 <- 17         0.00189
       7 <- 18        -0.00062
       7 <- 19        -0.00135
       7 <- 20         0.00189
       7 <- 21         0.00195
       7 <- 22        -0.00341
       7 <- 23         0.00303
       7 <- 24        -0.00032
       7 <- 25        -0.00017
       7 <- 26        -0.00163
       7 <- 27        -0.00160
       7 <- 28         0.00046
       7 <- 29        -0.00143
       7 <- 30        -0.00093
       7 <- 31        -0.00136
       7 <- 32        -0.00092
       7 <- 33        -0.00091
       7 <- 34         0.00128
       7 <- 35        -0.00125
       7 <- 36         0.00085
       7 <- 37        -0.00016
       7 <- 38        -0.00159
       7 <- 39        -0.00056
       7 <- 40         0.00031
       7 <- 41         0.00032
       7 <- 42         0.00048
       7 <- 43        -0.00017
       7 <- 44         0.00009
       7 <- 45         0.00006
       7 <- 46        -0.00012
       7 <- 47        -0.00008
       7 <- 48         0.00013
       7 <- 49         0.00001
       7 <- 50        -0.00008
       8 <-  9        -0.00644
       8 <- 10         0.00066
       8 <- 11        -0.00052
       8 <- 12         0.00158
       8 <- 13        -0.00292
       8 <- 14        -0.00126
       8 <- 15        -0.00253
       8 <- 16        -0.00242
       8 <- 17        -0.00053
       8 <- 18         0.00064
       8 <- 19         0.00321
       8 <- 20        -0.00365
       8 <- 21         0.00090
       8 <- 22         0.00091
       8 <- 23        -0.00092
       8 <- 24        -0.00062
       8 <- 25         0.00052
       8 <- 26        -0.00081
       8 <- 27         0.00144
       8 <- 28         0.00174
       8 <- 29        -0.00031
       8 <- 30         0.00028
       8 <- 31        -0.00176
       8 <- 32        -0.00097
       8 <- 33         0.00055
       8 <- 34         0.00022
       8 <- 35        -0.00025
       8 <- 36        -0.00037
       8 <- 37         0.00050
       8 <- 38         0.00095
       8 <- 39         0.00071
       8 <- 40         0.00057
       8 <- 41        -0.00032
       8 <- 42         0.00000
       8 <- 43         0.00015
       8 <- 44        -0.00057
       8 <- 45        -0.00007
       8 <- 46        -0.00017
       8 <- 47        -0.00003
       8 <- 48        -0.00007
       8 <- 49         0.00004
       8 <- 50         0.00003
 SavETr:  write IOETrn=   770 NScale= 10 NData=  16 NLR=1 LETran=      46.

 **********************************************************************

            Population analysis using the SCF density.

 **********************************************************************

 Alpha  occ. eigenvalues --  -14.70602 -10.64531  -1.46419  -1.19557  -1.05181
 Alpha  occ. eigenvalues --   -0.94607  -0.89984  -0.66038
 Alpha virt. eigenvalues --   -0.49489  -0.12237  -0.05396  -0.01306   0.01878
 Alpha virt. eigenvalues --    0.02652   0.17371   0.20475   0.23422   0.38123
 Alpha virt. eigenvalues --    0.41960   0.49321   0.62080   0.84630   0.97210
 Alpha virt. eigenvalues --    0.99488   1.09665   1.12829   1.17372   1.20531
 Alpha virt. eigenvalues --    1.63513   1.73812   1.83641   2.16487   2.35446
 Alpha virt. eigenvalues --    2.42763   2.54367   2.58138   2.62603   2.70753
 Alpha virt. eigenvalues --    2.91483   3.00400   3.11275   3.26063   3.51912
 Alpha virt. eigenvalues --    3.65231   3.77710   3.90418   6.30273   6.58103
 Alpha virt. eigenvalues --    9.32210   9.82097
          Condensed to atoms (all electrons):
              1          2          3          4          5          6
     1  N    5.568566   0.528331   0.425381   0.395691  -0.031103  -0.037817
     2  C    0.528331   4.155942  -0.004553  -0.024457   0.329778   0.354405
     3  H    0.425381  -0.004553   0.558509  -0.057698  -0.012500   0.012123
     4  H    0.395691  -0.024457  -0.057698   0.572187   0.012039  -0.012743
     5  H   -0.031103   0.329778  -0.012500   0.012039   0.754581  -0.059164
     6  H   -0.037817   0.354405   0.012123  -0.012743  -0.059164   0.754796
 Mulliken atomic charges:
              1
     1  N    0.150952
     2  C    0.660555
     3  H    0.078738
     4  H    0.114983
     5  H    0.006370
     6  H   -0.011599
 Sum of Mulliken atomic charges =   1.00000
 Mulliken charges with hydrogens summed into heavy atoms:
              1
     1  N    0.344673
     2  C    0.655327
 Sum of Mulliken charges with hydrogens summed into heavy atoms =   1.00000
 Electronic spatial extent (au):  <R**2>=            277.5051
 Charge=              1.0000 electrons
 Dipole moment (field-independent basis, Debye):
    X=             -7.7717    Y=              3.4950    Z=             -0.3345  Tot=              8.5279
 Quadrupole moment (field-independent basis, Debye-Ang):
   XX=              3.7959   YY=             -4.7700   ZZ=             -8.4629
   XY=             -7.3781   XZ=              1.1386   YZ=             -0.4025
 Traceless Quadrupole moment (field-independent basis, Debye-Ang):
   XX=              6.9416   YY=             -1.6243   ZZ=             -5.3172
   XY=             -7.3781   XZ=              1.1386   YZ=             -0.4025
 Octapole moment (field-independent basis, Debye-Ang**2):
  XXX=             28.8830  YYY=            -12.9273  ZZZ=              0.2934  XYY=              6.7139
  XXY=              9.3246  XXZ=             -3.2918  XZZ=             15.6849  YZZ=             -5.8259
  YYZ=             -0.0138  XYZ=              1.0743
 Hexadecapole moment (field-independent basis, Debye-Ang**3):
 XXXX=           -175.7180 YYYY=            -33.9424 ZZZZ=             -6.6502 XXXY=              7.7673
 XXXZ=              9.2146 YYYX=             26.2990 YYYZ=              0.1060 ZZZX=              0.0739
 ZZZY=             -0.2129 XXYY=            -18.8629 XXZZ=            -33.8557 YYZZ=             -7.5639
 XXYZ=             -3.0508 YYXZ=              0.5622 ZZXY=             12.4641
 N-N= 5.309033353759D+01 E-N=-3.200198223885D+02  KE= 1.008258721871D+02

 Test job not archived.
 1\1\GINC-EAM\SP\RTD-B3LYP-FC\Gen\C1H4N1(1+)\DULIKAI\10-Jan-2014\0\\# t
 d(singlet, root=0, nstates=2) b3lyp/ChkBasis scf=(tight,maxcycle=10000
 ) iop(9/40=20) nosymm geom=AllCheck Guess=Read\\[0] [0]\\1,1\N,-2.3414
 018,1.0782246,0.\C,-1.3053844,0.2902906,0.\H,-2.475146,1.2000094,-0.50
 85497\H,-2.2338625,1.5283161,0.2778391\H,-1.4250684,-0.179301,-0.29285
 18\H,-0.8693637,0.5561227,-0.2445856\\Version=EM64L-G09RevA.01\HF=-92.
 3280245\RMSD=2.441e-09\PG=C01 [X(C1H4N1)]\\@


 In the beginning the Universe was created.
 This has made a lot of people very angry
 and been widely regarded as a bad move.
                               -D.Adams
 Job cpu time:  0 days  0 hours  0 minutes 14.8 seconds.
 File lengths (MBytes):  RWF=      9 Int=      0 D2E=      0 Chk=      1 Scr=      1
 Normal termination of Gaussian 09 at Fri Jan 10 13:44:59 2014.
